 ANIMSTEPS  10
 CRYSTAL 
 PRIMVEC 
 10.9388240296  0.0000000000  0.0000000000
  0.0000000000 10.9388240296  0.0000000000
  0.0000000000  0.0000000000 10.9388240296
 PRIMCOORD   1
   63  1
Si    0.0000001860   -0.0000003610    0.0000002625    0.0000000000    0.0000000000    0.0000000000
Si    5.4694124414   -0.0000001203    0.0000001969    0.0000000000   -0.0000000000    0.0000000000
Si   -0.0000004922    5.4694122992   -0.0000007110    0.0000000000    0.0000000000    0.0000000000
Si    5.4694124742    5.4694123539   -0.0000002078    0.0000000000    0.0000000000    0.0000000000
Si    2.7387808178    2.7387805115   -0.0015328793    0.0000025331    0.0000025331   -0.0000077252
Si    8.2000437916    2.7387809381    0.0015321354   -0.0000025331    0.0000025331    0.0000077252
Si    2.7387811460    8.2000433540    0.0015326496    0.0000025331   -0.0000025331    0.0000077252
Si    8.2000434306    8.2000437369   -0.0015323761   -0.0000025331   -0.0000025331   -0.0000077252
Si    1.3679084006    1.3679076458    1.3679077880   -0.0000043165   -0.0000043165   -0.0000043165
Si    6.8375423095    1.3791649975    1.3791649975   -0.0000042198   -0.0000008737   -0.0000008737
Si    1.3791639802    6.8375418391    1.3791640349   -0.0000008737   -0.0000042198   -0.0000008737
Si    6.8348090583    6.8348085223    1.3733881279    0.0000011188    0.0000011188    0.0000029496
Si    4.1040157808    4.1040155292    1.3733875701   -0.0000011188   -0.0000011188    0.0000029496
Si    9.5596599619    4.1012823874    1.3791641771    0.0000008737    0.0000042198   -0.0000008737
Si    4.1012828359    9.5596589774    1.3791652491    0.0000042198    0.0000008737   -0.0000008737
Si    9.5709162306    9.5709159025    1.3679082803    0.0000043165    0.0000043165   -0.0000043165
Si    2.7387809053   -0.0015327808    2.7387808725    0.0000025331   -0.0000077252    0.0000025331
Si    8.2000436056    0.0015321792    2.7387809819   -0.0000025331    0.0000077252    0.0000025331
Si    2.7705992206    5.4728179599    2.7705999207    0.0000084307   -0.0000057071    0.0000084307
Si    8.1682244699    5.4660056541    2.7706006318   -0.0000084307    0.0000057071    0.0000084307
Si    5.4728191741    2.7706018350    2.7706015944   -0.0000057071    0.0000084307    0.0000084307
Si   -0.0015324636    2.7387801943    2.7387801615   -0.0000077252    0.0000025331    0.0000025331
Si    5.4660057744    8.1682227525    2.7706018788    0.0000057071   -0.0000084307    0.0000084307
Si    0.0015324417    8.2000432009    2.7387809600    0.0000077252   -0.0000025331    0.0000025331
Si    4.1040159448    1.3733878873    4.1040155510   -0.0000011188    0.0000029496   -0.0000011188
Si    9.5596595900    1.3791645490    4.1012823437    0.0000008737   -0.0000008737    0.0000042198
Si    4.1879069896    6.7509144694    4.1879098009    0.0000001947   -0.0000001947    0.0000001947
Si    9.5654364158    6.8348087411    4.1040160871   -0.0000029496    0.0000011188   -0.0000011188
Si    6.7509148522    4.1879120762    4.1879114964   -0.0000001947    0.0000001947    0.0000001947
Si    1.3733869794    4.1040150260    4.1040156057    0.0000029496   -0.0000011188   -0.0000011188
Si    6.8348093974    9.5654356938    4.1040164808    0.0000011188   -0.0000029496   -0.0000011188
Si    1.3791641333    9.5596596556    4.1012824749   -0.0000008737    0.0000008737    0.0000042198
Si   -0.0000004922   -0.0000001203    5.4694121570    0.0000000000    0.0000000000    0.0000000000
Si    5.4694125399    0.0000000438    5.4694123102    0.0000000000   -0.0000000000    0.0000000000
Si   -0.0000000656    5.4694119929    5.4694124414    0.0000000000    0.0000000000    0.0000000000
Si    2.7705998551    2.7705999536    5.4728182552    0.0000084307    0.0000084307   -0.0000057071
Si    8.1682241526    2.7706012990    5.4660053915   -0.0000084307    0.0000084307    0.0000057071
Si    2.7705994722    8.1682241089    5.4660063651    0.0000084307   -0.0000084307    0.0000057071
Si    8.1682230916    8.1682221727    5.4728197648   -0.0000084307   -0.0000084307   -0.0000057071
Si    1.3791641771    1.3791641552    6.8375420360   -0.0000008737   -0.0000008737   -0.0000042198
Si    6.8348092880    1.3733884233    6.8348083364    0.0000011188    0.0000029496    0.0000011188
Si    1.3733870888    6.8348087192    6.8348092771    0.0000029496    0.0000011188    0.0000011188
Si    6.7509105424    6.7509090219    6.7509085405   -0.0000001947   -0.0000001947   -0.0000001947
Si    4.1879079194    4.1879098774    6.7509143600    0.0000001947    0.0000001947   -0.0000001947
Si    9.5654361861    4.1040159120    6.8348092005   -0.0000029496   -0.0000011188    0.0000011188
Si    4.1040160105    9.5654361095    6.8348089599   -0.0000011188   -0.0000029496    0.0000011188
Si    9.5596592728    9.5596592290    6.8375419375    0.0000008737    0.0000008737   -0.0000042198
Si    2.7387810475    0.0015327699    8.2000436603    0.0000025331    0.0000077252   -0.0000025331
Si    8.2000436494   -0.0015323980    8.2000434634   -0.0000025331   -0.0000077252   -0.0000025331
Si    2.7706000301    5.4660060150    8.1682240542    0.0000084307    0.0000057071   -0.0000084307
Si    8.1682227525    5.4728201695    8.1682218883   -0.0000084307   -0.0000057071   -0.0000084307
Si    5.4660062119    2.7706017256    8.1682228509    0.0000057071    0.0000084307   -0.0000084307
Si    0.0015324746    2.7387806428    8.2000435728    0.0000077252    0.0000025331   -0.0000025331
Si    5.4728198851    8.1682215711    8.1682213195   -0.0000057071   -0.0000084307   -0.0000084307
Si   -0.0015326277    8.2000439557    8.2000439775   -0.0000077252   -0.0000025331   -0.0000025331
Si    4.1012830547    1.3791649865    9.5596591743    0.0000042198   -0.0000008737    0.0000008737
Si    9.5709164275    1.3679077443    9.5709162525    0.0000043165   -0.0000043165    0.0000043165
Si    4.1040161089    6.8348089708    9.5654357485   -0.0000011188    0.0000011188   -0.0000029496
Si    9.5596589009    6.8375421782    9.5596590978    0.0000008737   -0.0000042198    0.0000008737
Si    6.8348095287    4.1040165684    9.5654355735    0.0000011188   -0.0000011188   -0.0000029496
Si    1.3791643193    4.1012822343    9.5596596228   -0.0000008737    0.0000042198    0.0000008737
Si    6.8375417406    9.5596589118    9.5596587587   -0.0000042198    0.0000008737    0.0000008737
Si    1.3679084772    9.5709162088    9.5709162963   -0.0000043165    0.0000043165    0.0000043165
 PRIMCOORD   2
   63  1
Si    0.0002035770    0.0002030563   -0.0002032804    0.0002304753    0.0002304753   -0.0002304753
Si    5.4650358730    0.0154873752   -0.0154874243    0.0006530762   -0.0000285931    0.0000285931
Si    0.0154871526    5.4650358355   -0.0154880913   -0.0000285931    0.0006530762    0.0000285931
Si    5.4695176296    5.4695176271   -0.0042191181    0.0001935726    0.0001935726    0.0000755350
Si    2.7414419335    2.7414416796   -0.0124901067    0.0002748778    0.0002748778   -0.0000351969
Si    8.2021764544    2.7385048624   -0.0014259502    0.0002206970    0.0003155325   -0.0002346777
Si    2.7385051017    8.2021761478   -0.0014256377    0.0003155325    0.0002206970   -0.0002346777
Si    8.1986545800    8.1986548810    0.0021893846   -0.0000100001   -0.0000100001   -0.0002966265
Si    1.3717095053    1.3717088291    1.3624844021   -0.0002904905   -0.0002904905   -0.0005590118
Si    6.8409710818    1.3758394532    1.3724783210    0.0002243212   -0.0003148001    0.0001674713
Si    1.3758387763    6.8409708288    1.3724775548   -0.0003148001    0.0002243212    0.0001674713
Si    6.8314465093    6.8314462037    1.3758286027   -0.0000044483   -0.0000044483    0.0001820545
Si    4.1038440452    4.1038438669    1.3681798638    0.0000457486    0.0000457486    0.0001369084
Si    9.5666873517    4.1035052373    1.3721367140    0.0000099394   -0.0001412390   -0.0000099394
Si    4.1035055680    9.5666865636    1.3721375084   -0.0001412390    0.0000099394   -0.0000099394
Si    9.5703418596    9.5703416127    1.3684825465    0.0001126068    0.0001126068   -0.0001126068
Si    2.7385048794    0.0014253336    2.7366480499    0.0003155325    0.0002346777   -0.0002206970
Si    8.1986546686   -0.0021896077    2.7401697697   -0.0000100001    0.0002966265    0.0000100001
Si    2.7591655615    5.4694170210    2.7605759368    0.0004063322    0.0004140506   -0.0003149113
Si    8.1663769872    5.4618515997    2.7724478500    0.0000648299   -0.0000649810   -0.0000648299
Si    5.4694178739    2.7591675134    2.7605772229    0.0004140506    0.0004063322   -0.0003149113
Si    0.0014256456    2.7385042522    2.7366474908    0.0002346777    0.0003155325   -0.0002206970
Si    5.4618515996    8.1663757123    2.7724488404   -0.0000649810    0.0000648299   -0.0000648299
Si   -0.0021893242    8.1986544393    2.7401697268    0.0002966265   -0.0000100001    0.0000100001
Si    4.1018488164    1.3776740369    4.1052374057   -0.0001319082   -0.0003200601   -0.0002994373
Si    9.5663460727    1.3758391095    4.0978534718   -0.0001674713   -0.0003148001   -0.0002243212
Si    4.1551571052    6.7561430077    4.1826811893    0.0003915568    0.0004657295   -0.0004657295
Si    9.5629958258    6.8314463387    4.1073784187   -0.0001820545   -0.0000044483    0.0000044483
Si    6.7561433277    4.1551609217    4.1826824344    0.0004657295    0.0003915568   -0.0004657295
Si    1.3776733149    4.1018482196    4.1052374054   -0.0003200601   -0.0001319082   -0.0002994373
Si    6.8314466729    9.5629953238    4.1073787654   -0.0000044483   -0.0001820545    0.0000044483
Si    1.3758389321    9.5663460650    4.0978536005   -0.0003148001   -0.0001674713   -0.0002243212
Si    0.0154871473    0.0154873359    5.4737886181   -0.0000285931   -0.0000285931   -0.0006530762
Si    5.4695175957    0.0042190980    5.4693070763    0.0001935726   -0.0000755350   -0.0001935726
Si    0.0042189519    5.4695172975    5.4693071368   -0.0000755350    0.0001935726   -0.0001935726
Si    2.8174223643    2.8174225020    5.4785784227   -0.0016035240   -0.0016035240   -0.0009431649
Si    8.1782480292    2.7591671240    5.4694066001    0.0003149113    0.0004063322   -0.0004140506
Si    2.7591658053    8.1782479435    5.4694073825    0.0004063322    0.0003149113   -0.0004140506
Si    8.1663758550    8.1663752452    5.4769736227    0.0000648299    0.0000648299    0.0000649810
Si    1.4078569617    1.4078569346    6.8286304883   -0.0003833528   -0.0003833528   -0.0004545325
Si    6.8335871087    1.3776745441    6.8369754674    0.0002994373   -0.0003200601    0.0001319082
Si    1.3776735552    6.8335866630    6.8369761882   -0.0003200601    0.0002994373    0.0001319082
Si    6.7561399684    6.7561388433    6.7836604884    0.0004657295    0.0004657295   -0.0003915568
Si    4.3103818739    4.3103833161    6.6284407721   -0.0035355483   -0.0035355483    0.0035355483
Si    9.5706439107    4.1038441424    6.8349807397   -0.0001369084    0.0000457486   -0.0000457486
Si    4.1038442016    9.5706438629    6.8349805619    0.0000457486   -0.0001369084   -0.0000457486
Si    9.5666868171    9.5666867550    6.8353191165    0.0000099394    0.0000099394    0.0001412390
Si    2.7414421868    0.0124900994    8.1973823849    0.0002748778    0.0000351969   -0.0002748778
Si    8.2021762834    0.0014257138    8.2003194291    0.0002206970    0.0002346777   -0.0003155325
Si    2.8174227043    5.4602455307    8.1214015450   -0.0016035240    0.0009431649    0.0016035240
Si    8.1782470271    5.4694186965    8.1796562623    0.0003149113    0.0004140506   -0.0004063322
Si    5.4602457748    2.8174240122    8.1214006900    0.0009431649   -0.0016035240    0.0016035240
Si    0.0124898250    2.7414418082    8.1973823576    0.0000351969    0.0002748778   -0.0002748778
Si    5.4694183597    8.1782460683    8.1796558113    0.0004140506    0.0003149113   -0.0004063322
Si    0.0014256517    8.2021765792    8.2003198018    0.0002346777    0.0002206970   -0.0003155325
Si    4.1101943432    1.4078575984    9.5309665599    0.0004545325   -0.0003833528    0.0003833528
Si    9.5763397611    1.3717089668    9.5671149593    0.0005590118   -0.0002904905    0.0002904905
Si    4.1018489700    6.8335869329    9.5611496696   -0.0001319082    0.0002994373    0.0003200601
Si    9.5663456035    6.8409710815    9.5629845425   -0.0001674713    0.0002243212    0.0003148001
Si    6.8335874174    4.1018494373    9.5611496098    0.0002994373   -0.0001319082    0.0003200601
Si    1.4078570751    4.1101936772    9.5309669089   -0.0003833528    0.0004545325    0.0003833528
Si    6.8409705968    9.5663455359    9.5629842479    0.0002243212   -0.0001674713    0.0003148001
Si    1.3717096604    9.5763396235    9.5671149349   -0.0002904905    0.0005590118    0.0002904905
 PRIMCOORD   3
   63  1
Si    0.0005736224    0.0005731204   -0.0005734348    0.0003372077    0.0003372077   -0.0003372077
Si    5.4605402420    0.0264417663   -0.0264419057    0.0011161702   -0.0000297693    0.0000297693
Si    0.0264416508    5.4605402798   -0.0264423997   -0.0000297693    0.0011161702    0.0000297693
Si    5.4696414225    5.4696415046   -0.0063011812    0.0004099145    0.0004099145    0.0001546309
Si    2.7445222614    2.7445220451   -0.0230189461    0.0005204116    0.0005204116   -0.0000774027
Si    8.2038148073    2.7373081076   -0.0037241037    0.0004994748    0.0004039752   -0.0001835530
Si    2.7373083694    8.2038145947   -0.0037239360    0.0004039752    0.0004994748   -0.0001835530
Si    8.1965274435    8.1965277408    0.0077795081   -0.0000085737   -0.0000085737   -0.0004436048
Si    1.3754007985    1.3754001786    1.3563779918   -0.0003775857   -0.0003775857   -0.0008510159
Si    6.8440837169    1.3718223944    1.3675862003    0.0003613903   -0.0005405151    0.0002178440
Si    1.3718219618    6.8440836199    1.3675855750   -0.0005405151    0.0003613903    0.0002178440
Si    6.8278398867    6.8278397466    1.3820875700   -0.0002768596   -0.0002768596    0.0002610132
Si    4.1036866869    4.1036865613    1.3650055434   -0.0000059931   -0.0000059931    0.0002373674
Si    9.5675500057    4.1060629501    1.3712740073    0.0001738010   -0.0004365652   -0.0001738010
Si    4.1060631961    9.5675493586    1.3712746025   -0.0004365652    0.0001738010   -0.0001738010
Si    9.5700798001    9.5700796114    1.3687445309    0.0001553513    0.0001553513   -0.0001553513
Si    2.7373081603    0.0037235078    2.7350095824    0.0004039752    0.0001835530   -0.0004994748
Si    8.1965274701   -0.0077797500    2.7422968610   -0.0000085737    0.0004436048    0.0000085737
Si    2.7490819104    5.4673163869    2.7531872269    0.0005958862    0.0006004058   -0.0006749273
Si    8.1548704009    5.4546118109    2.7839542464    0.0002811999   -0.0002641314   -0.0002811999
Si    5.4673169804    2.7490833867    2.7531882348    0.0006004058    0.0005958862   -0.0006749273
Si    0.0037238161    2.7373075932    2.7350091322    0.0001835530    0.0004039752   -0.0004994748
Si    5.4546117244    8.1548694437    2.7839550526   -0.0002641314    0.0002811999   -0.0002811999
Si   -0.0077794515    8.1965273668    2.7422968031    0.0004436048   -0.0000085737    0.0000085737
Si    4.1008367077    1.3808166630    4.1056907226   -0.0003145814   -0.0004988372   -0.0003919168
Si    9.5712380543    1.3718221258    4.0947407653   -0.0002178440   -0.0005405151   -0.0003613903
Si    4.1305103456    6.7414569036    4.1973672407    0.0003523951    0.0013524371   -0.0013524371
Si    9.5567367758    6.8278398214    4.1109848853   -0.0002610132   -0.0002768596    0.0002768596
Si    6.7414571785    4.1305132505    4.1973681625    0.0013524371    0.0003523951   -0.0013524371
Si    1.3808160744    4.1008363421    4.1056906829   -0.0004988372   -0.0003145814   -0.0003919168
Si    6.8278399244    9.5567364317    4.1109851981   -0.0002768596   -0.0002610132    0.0002768596
Si    1.3718221195    9.5712379940    4.0947408921   -0.0005405151   -0.0002178440   -0.0003613903
Si    0.0264416418    0.0264416988    5.4782841720   -0.0000297693   -0.0000297693   -0.0011161702
Si    5.4696413172    0.0063012645    5.4691832269    0.0004099145   -0.0001546309   -0.0004099145
Si    0.0063010921    5.4696411976    5.4691832367   -0.0001546309    0.0004099145   -0.0004099145
Si    2.8632345344    2.8632347003    5.4798345467   -0.0024976560   -0.0024976560   -0.0013472603
Si    8.1856366620    2.7490831026    5.4715074278    0.0006749273    0.0005958862   -0.0006004058
Si    2.7490821485    8.1856365463    5.4715080730    0.0005958862    0.0006749273   -0.0006004058
Si    8.1548694454    8.1548690573    5.4842132705    0.0002811999    0.0002811999    0.0002641314
Si    1.4343017352    1.4343017044    6.8195001067   -0.0003330810   -0.0003330810   -0.0008902039
Si    6.8331335587    1.3808171495    6.8379875780    0.0003919168   -0.0004988372    0.0003145814
Si    1.3808164087    6.8331332013    6.8379881409   -0.0004988372    0.0003919168    0.0003145814
Si    6.7414545015    6.7414536602    6.8083087292    0.0013524371    0.0013524371   -0.0003523951
Si    4.4361471769    4.4361482488    6.5026757323   -0.0069128985   -0.0069128985    0.0069128985
Si    9.5738182443    4.1036867597    6.8351379570   -0.0002373674   -0.0000059931    0.0000059931
Si    4.1036867907    9.5738182172    6.8351378243   -0.0000059931   -0.0002373674    0.0000059931
Si    9.5675495820    9.5675495068    6.8327614244    0.0001738010    0.0001738010    0.0004365652
Si    2.7445225316    0.0230190121    8.1943019423    0.0005204116    0.0000774027   -0.0005204116
Si    8.2038146156    0.0037238862    8.2015161050    0.0004994748    0.0001835530   -0.0004039752
Si    2.8632349928    5.4589891793    8.0755893749   -0.0024976560    0.0013472603    0.0024976560
Si    8.1856359456    5.4673176789    8.1897404266    0.0006749273    0.0006004058   -0.0005958862
Si    5.4589894572    2.8632360226    8.0755887699    0.0013472603   -0.0024976560    0.0024976560
Si    0.0230187528    2.7445221719    8.1943019582    0.0000774027    0.0005204116   -0.0005204116
Si    5.4673173046    8.1856351465    8.1897400602    0.0006004058    0.0006749273   -0.0005958862
Si    0.0037239444    8.2038149039    8.2015163762    0.0001835530    0.0004994748   -0.0004039752
Si    4.1193245386    1.4343022478    9.5045219086    0.0008902039   -0.0003330810    0.0003330810
Si    9.5824461338    1.3754003446    9.5634235308    0.0008510159   -0.0003775857    0.0003775857
Si    4.1008368537    6.8331334844    9.5580070943   -0.0003145814    0.0003919168    0.0004988372
Si    9.5712377430    6.8440838106    9.5670015299   -0.0002178440    0.0003613903    0.0005405151
Si    6.8331339163    4.1008373267    9.5580071172    0.0003919168   -0.0003145814    0.0004988372
Si    1.4343018280    4.1193239836    9.5045221861   -0.0003330810    0.0008902039    0.0003330810
Si    6.8440832920    9.5712376190    9.5670012673    0.0003613903   -0.0002178440    0.0005405151
Si    1.3754010100    9.5824460545    9.5634234576   -0.0003775857    0.0008510159    0.0003775857
 PRIMCOORD   4
   63  1
Si    0.0008940708    0.0008935769   -0.0008939301    0.0002443771    0.0002443771   -0.0002443771
Si    5.4576875520    0.0296266948   -0.0296268730    0.0011883474    0.0000436609   -0.0000436609
Si    0.0296266254    5.4576876222   -0.0296272926    0.0000436609    0.0011883474   -0.0000436609
Si    5.4694400201    5.4694401386   -0.0060351386    0.0005306923    0.0005306923    0.0002169503
Si    2.7467112705    2.7467110704   -0.0292834650    0.0007329877    0.0007329877   -0.0003427943
Si    8.2042058335    2.7348512586   -0.0042986385    0.0006902757    0.0004317220    0.0001131468
Si    2.7348515302    8.2042056614   -0.0042985331    0.0004317220    0.0006902757    0.0001131468
Si    8.1943464119    8.1943467076    0.0130828667   -0.0000559439   -0.0000559439   -0.0002954073
Si    1.3776856034    1.3776850079    1.3521452476   -0.0002438381   -0.0002438381   -0.0008948843
Si    6.8450664906    1.3689668915    1.3665683035    0.0004382754   -0.0007709035   -0.0000200601
Si    1.3689665642    6.8450664608    1.3665677390   -0.0007709035    0.0004382754   -0.0000200601
Si    6.8248651876    6.8248651187    1.3895559622   -0.0006796980   -0.0006796980    0.0003900581
Si    4.1034461981    4.1034460951    1.3652268199   -0.0001579857   -0.0001579857    0.0001322276
Si    9.5616150226    4.1086864614    1.3772089678    0.0003976445   -0.0009498588   -0.0003976445
Si    4.1086866710    9.5616144362    1.3772094772   -0.0009498588    0.0003976445   -0.0003976445
Si    9.5700923815    9.5700922179    1.3687319171    0.0001434790    0.0001434790   -0.0001434790
Si    2.7348513267    0.0042980515    2.7346185068    0.0004317220   -0.0001131468   -0.0006902757
Si    8.1943464118   -0.0130831167    2.7444778732   -0.0000559439    0.0002954073    0.0000559439
Si    2.7427660427    5.4667730167    2.7506288115    0.0005258692    0.0005037685   -0.0008791132
Si    8.1368231409    5.4472080376    2.8020014246    0.0003081460   -0.0004686377   -0.0003081460
Si    5.4667734984    2.7427673141    2.7506296996    0.0005037685    0.0005258692   -0.0008791132
Si    0.0042983581    2.7348507855    2.7346181036   -0.0001131468    0.0004317220   -0.0006902757
Si    5.4472079137    8.1368223205    2.8020021515   -0.0004686377    0.0003081460   -0.0003081460
Si   -0.0130828117    8.1943463627    2.7444778088    0.0002954073   -0.0000559439    0.0000559439
Si    4.1006636831    1.3828585035    4.1060862905   -0.0005971571   -0.0006439250   -0.0003076436
Si    9.5722558912    1.3689666553    4.0937579609    0.0000200601   -0.0007709035   -0.0004382754
Si    4.1195261698    6.7089237375    4.2299003841   -0.0001867062    0.0016654085   -0.0016654085
Si    9.5492683479    6.8248651676    4.1139595172   -0.0003900581   -0.0006796980    0.0006796980
Si    6.7089239930    4.1195286819    4.2299011666    0.0016654085   -0.0001867062   -0.0016654085
Si    1.3828579724    4.1006634171    4.1060862337   -0.0006439250   -0.0005971571   -0.0003076436
Si    6.8248651710    9.5492680719    4.1139598155   -0.0006796980   -0.0003900581    0.0006796980
Si    1.3689667227    9.5722558082    4.0937580868   -0.0007709035    0.0000200601   -0.0004382754
Si    0.0296266148    0.0296266152    5.4811368288    0.0000436609    0.0000436609   -0.0011883474
Si    5.4694398840    0.0060352664    5.4693846051    0.0005306923   -0.0002169503   -0.0005306923
Si    0.0060350827    5.4694398413    5.4693845930   -0.0002169503    0.0005306923   -0.0005306923
Si    2.8968286803    2.8968288584    5.4797930672   -0.0013802849   -0.0013802849   -0.0014392626
Si    8.1881950442    2.7427670754    5.4720508814    0.0008791132    0.0005258692   -0.0005037685
Si    2.7427662784    8.1881949155    5.4720514675    0.0005258692    0.0008791132   -0.0005037685
Si    8.1368222615    8.1368219690    5.4916169832    0.0003081460    0.0003081460    0.0004686377
Si    1.4517897374    1.4517897049    6.8126440717   -0.0000963198   -0.0000963198   -0.0008784147
Si    6.8327378904    1.3828589811    6.8381606035    0.0003076436   -0.0006439250    0.0005971571
Si    1.3828583472    6.8327375711    6.8381610983   -0.0006439250    0.0003076436    0.0005971571
Si    6.7089216100    6.7089208910    6.8192935432    0.0016654085    0.0016654085    0.0001867062
Si    4.5686095712    4.5686104836    6.3702134513   -0.0085546576   -0.0085546576    0.0085546576
Si    9.5735969734    4.1034462604    6.8353783851   -0.0001322276   -0.0001579857    0.0001579857
Si    4.1034462792    9.5735969552    6.8353782718   -0.0001579857   -0.0001322276    0.0001579857
Si    9.5616146466    9.5616145657    6.8301379219    0.0003976445    0.0003976445    0.0009498588
Si    2.7467115480    0.0292835626    8.1921128838    0.0007329877    0.0003427943   -0.0007329877
Si    8.2042056329    0.0042984291    8.2039729199    0.0006902757   -0.0001131468   -0.0004317220
Si    2.8968291898    5.4590305608    8.0419952289   -0.0013802849    0.0014392626    0.0013802849
Si    8.1881944509    5.4667741435    8.1960565153    0.0008791132    0.0005037685   -0.0005258692
Si    5.4590308532    2.8968300997    8.0419947316    0.0014392626   -0.0013802849    0.0013802849
Si    0.0292833097    2.7467111963    8.1921129184    0.0003427943    0.0007329877   -0.0007329877
Si    5.4667737529    8.1881937207    8.1960561854    0.0005037685    0.0008791132   -0.0005258692
Si    0.0042985391    8.2042059180    8.2039731474   -0.0001131468    0.0006902757   -0.0004317220
Si    4.1261804934    1.4517901966    9.4870339590    0.0008784147   -0.0000963198    0.0000963198
Si    9.5866788618    1.3776851860    9.5611386675    0.0008948843   -0.0002438381    0.0002438381
Si    4.1006638259    6.8327378598    9.5559652757   -0.0005971571    0.0003076436    0.0006439250
Si    9.5722556480    6.8450666247    9.5698570021    0.0000200601    0.0004382754    0.0007709035
Si    6.8327382691    4.1006643013    9.5559653342    0.0003076436   -0.0005971571    0.0006439250
Si    1.4517898212    4.1261799862    9.4870342058   -0.0000963198    0.0008784147    0.0000963198
Si    6.8450660916    9.5722554997    9.5698567532    0.0004382754    0.0000200601    0.0007709035
Si    1.3776858392    9.5866788076    9.5611385733   -0.0002438381    0.0008948843    0.0002438381
 PRIMCOORD   5
   63  1
Si    0.0011431233    0.0011426311   -0.0011429925    0.0000096316    0.0000096316   -0.0000096316
Si    5.4582079214    0.0265939381   -0.0265941244    0.0010395684   -0.0000308284    0.0000308284
Si    0.0265938784    5.4582079984   -0.0265945284   -0.0000308284    0.0010395684    0.0000308284
Si    5.4688329434    5.4688330696   -0.0039317467    0.0004490033    0.0004490033    0.0001699069
Si    2.7479860120    2.7479858153   -0.0308671057    0.0008622670    0.0008622670   -0.0005180314
Si    8.2041697633    2.7317693227   -0.0030588325    0.0007868633   -0.0000154398    0.0003926102
Si    2.7317695963    8.2041695996   -0.0030587401   -0.0000154398    0.0007868633    0.0003926102
Si    8.1931624140    8.1931627093    0.0163877102   -0.0001430526   -0.0001430526    0.0001443746
Si    1.3785699205    1.3785693300    1.3504366635    0.0000358308    0.0000358308   -0.0006454297
Si    6.8433563641    1.3676681811    1.3680274657    0.0004299488   -0.0008551351   -0.0003520242
Si    1.3676678759    6.8433563484    1.3680269139   -0.0008551351    0.0004299488   -0.0003520242
Si    6.8232332212    6.8232331672    1.3953822234   -0.0008896071   -0.0008896071    0.0005111602
Si    4.1030268102    4.1030267120    1.3679248013   -0.0003083381   -0.0003083381   -0.0000448235
Si    9.5527192673    4.1110200522    1.3861047184    0.0003189956   -0.0010583190   -0.0003189956
Si    4.1110202541    9.5527186936    1.3861052097   -0.0010583190    0.0003189956   -0.0003189956
Si    9.5701025515    9.5701023931    1.3687217403    0.0001299962    0.0001299962   -0.0001299962
Si    2.7317693940    0.0030582473    2.7346545666   -0.0000154398   -0.0003926102   -0.0007868633
Si    8.1931624082   -0.0163879619    2.7456618670   -0.0001430526   -0.0001443746    0.0001430526
Si    2.7391864153    5.4682493752    2.7500087502    0.0001291615    0.0003426694   -0.0008143304
Si    8.1203600177    5.4429069362    2.8184645307   -0.0001736217   -0.0007724741    0.0001736217
Si    5.4682498335    2.7391876438    2.7500096132    0.0003426694    0.0001291615   -0.0008143304
Si    0.0030585536    2.7317688582    2.7346541733   -0.0003926102   -0.0000154398   -0.0007868633
Si    5.4429068046    8.1203592261    2.8184652408   -0.0007724741   -0.0001736217    0.0001736217
Si   -0.0163876556    8.1931623705    2.7456618013   -0.0001443746   -0.0001430526    0.0001430526
Si    4.1012735227    1.3833326147    4.1059660539   -0.0004650259   -0.0006786608   -0.0002179257
Si    9.5707967164    1.3676679517    4.0954680809    0.0003520242   -0.0008551351   -0.0004299488
Si    4.1132239564    6.6744692717    4.2643548452   -0.0010408453    0.0005041849   -0.0005041849
Si    9.5434420793    6.8232332107    4.1155914695   -0.0005111602   -0.0008896071    0.0008896071
Si    6.6744695231    4.1132263862    4.2643555985    0.0005041849   -0.0010408453   -0.0005041849
Si    1.3833320957    4.1012732776    4.1059659935   -0.0006786608   -0.0004650259   -0.0002179257
Si    6.8232331932    9.5434418175    4.1155917647   -0.0008896071   -0.0005111602    0.0008896071
Si    1.3676680345    9.5707966287    4.0954682066   -0.0008551351    0.0003520242   -0.0004299488
Si    0.0265938674    0.0265938559    5.4806164524   -0.0000308284   -0.0000308284   -0.0010395684
Si    5.4688328009    0.0039318839    5.4699916767    0.0004490033   -0.0001699069   -0.0004490033
Si    0.0039316978    5.4688327743    5.4699916600   -0.0001699069    0.0004490033   -0.0004490033
Si    2.9113698103    2.9113699910    5.4791270719   -0.0001182831   -0.0001182831   -0.0015083438
Si    8.1888150985    2.7391874146    5.4705745404    0.0008143304    0.0001291615   -0.0003426694
Si    2.7391866505    8.1888149671    5.4705751141    0.0001291615    0.0008143304   -0.0003426694
Si    8.1203591543    8.1203588819    5.4959180718   -0.0001736217   -0.0001736217    0.0007724741
Si    1.4578538395    1.4578538066    6.8097991331    0.0002673658    0.0002673658   -0.0008792884
Si    6.8328581059    1.3833330904    6.8375507640    0.0002179257   -0.0006786608    0.0004650259
Si    1.3833324790    6.8328577946    6.8375512446   -0.0006786608    0.0002179257    0.0004650259
Si    6.6744672017    6.6744665083    6.8255958903    0.0005041849    0.0005041849    0.0010408453
Si    4.7105075583    4.7105084372    6.2283154880   -0.0039579684   -0.0039579684    0.0039579684
Si    9.5708989932    4.1030268702    6.8357977603    0.0000448235   -0.0003083381    0.0003083381
Si    4.1030268865    9.5708989769    6.8357976511   -0.0003083381    0.0000448235    0.0003083381
Si    9.5527189013    9.5527188192    6.8278043331    0.0003189956    0.0003189956    0.0010583190
Si    2.7479862910    0.0308672100    8.1908381319    0.0008622670    0.0005180314   -0.0008622670