
     Program PWSCF v.6.4.1 starts on 18Jul2019 at 16:24:16 

     This program is part of the open-source Quantum ESPRESSO suite
     for quantum simulation of materials; please cite
         "P. Giannozzi et al., J. Phys.:Condens. Matter 21 395502 (2009);
         "P. Giannozzi et al., J. Phys.:Condens. Matter 29 465901 (2017);
          URL http://www.quantum-espresso.org", 
     in publications or presentations arising from this work. More details at
     http://www.quantum-espresso.org/quote

     Parallel version (MPI), running on     2 processors

     MPI processes distributed on     1 nodes
     R & G space division:  proc/nbgrp/npool/nimage =       2
     Reading input from TMS.1_scf.in

     Current dimensions of program PWSCF are:
     Max number of different atomic species (ntypx) = 10
     Max number of k-points (npk) =  40000
     Max angular momentum in pseudopotentials (lmaxx) =  3

     Subspace diagonalization in iterative solution of the eigenvalue problem:
     a serial algorithm will be used

 
     Parallelization info
     --------------------
     sticks:   dense  smooth     PW     G-vecs:    dense   smooth      PW
     Min        5724    5724   1434               461164   461164   57656
     Max        5725    5725   1435               461165   461165   57657
     Sum       11449   11449   2869               922329   922329  115313
 


     bravais-lattice index     =            1
     lattice parameter (alat)  =      20.0000  a.u.
     unit-cell volume          =    8000.0000 (a.u.)^3
     number of atoms/cell      =           17
     number of atomic types    =            3
     number of electrons       =        32.00
     number of Kohn-Sham states=           16
     kinetic-energy cutoff     =      90.0000  Ry
     charge density cutoff     =     360.0000  Ry
     convergence threshold     =      1.0E-10
     mixing beta               =       0.5000
     number of iterations used =            8  plain     mixing
     Exchange-correlation      =  SLA  PW   PBX  PBC ( 1  4  3  4 0 0)

     celldm(1)=  20.000000  celldm(2)=   0.000000  celldm(3)=   0.000000
     celldm(4)=   0.000000  celldm(5)=   0.000000  celldm(6)=   0.000000

     crystal axes: (cart. coord. in units of alat)
               a(1) = (   1.000000   0.000000   0.000000 )  
               a(2) = (   0.000000   1.000000   0.000000 )  
               a(3) = (   0.000000   0.000000   1.000000 )  

     reciprocal axes: (cart. coord. in units 2 pi/alat)
               b(1) = (  1.000000  0.000000  0.000000 )  
               b(2) = (  0.000000  1.000000  0.000000 )  
               b(3) = (  0.000000  0.000000  1.000000 )  


     PseudoPot. # 1 for H  read from file:
     /home/anonymous/quantumEspresso_2019/q-e-qe-6.4.1_3_Intel/GIPAW/pseudo/H.pbe-tm-gipaw.UPF
     MD5 check sum: 39a9a69d8410949353303b9fcad9eee2
     Pseudo is Norm-conserving, Zval =  1.0
     Generated by new atomic code, or converted to UPF format
     Using radial grid of  929 points,  0 beta functions with: 

     PseudoPot. # 2 for C  read from file:
     /home/anonymous/quantumEspresso_2019/q-e-qe-6.4.1_3_Intel/GIPAW/pseudo/C.pbe-tm-gipaw.UPF
     MD5 check sum: 6e4a9b9bc4429ee737bc22471ffa2923
     Pseudo is Norm-conserving, Zval =  4.0
     Generated by new atomic code, or converted to UPF format
     Using radial grid of 1073 points,  1 beta functions with: 
                l(1) =   0

     PseudoPot. # 3 for Si read from file:
     /home/anonymous/quantumEspresso_2019/q-e-qe-6.4.1_3_Intel/GIPAW/pseudo/Si.pbe-tm-gipaw.UPF
     MD5 check sum: 744ed8b2dc623e0d56f5dfff7afbe95f
     Pseudo is Norm-conserving, Zval =  4.0
     Generated by new atomic code, or converted to UPF format
     Using radial grid of 1141 points,  2 beta functions with: 
                l(1) =   0
                l(2) =   1

     atomic species   valence    mass     pseudopotential
        H              1.00     1.00000     H ( 1.00)
        C              4.00    12.00000     C ( 1.00)
        Si             4.00    28.00000     Si( 1.00)

     No symmetry found



   Cartesian axes

     site n.     atom                  positions (alat units)
         1           Si  tau(   1) = (   0.0000094  -0.0000094   0.0000094  )
         2           C   tau(   2) = (  -0.0872203  -0.0161950  -0.1533796  )
         3           C   tau(   3) = (   0.0839322   0.1559969   0.0040346  )
         4           C   tau(   4) = (   0.1182874  -0.1310903   0.0148155  )
         5           C   tau(   5) = (  -0.1150087  -0.0087116   0.1345107  )
         6           H   tau(   6) = (  -0.1369579  -0.1067128  -0.1577165  )
         7           H   tau(   7) = (  -0.1568284   0.0594886  -0.1639432  )
         8           H   tau(   8) = (  -0.0218074  -0.0113667  -0.2332678  )
         9           H   tau(   9) = (   0.1515938   0.1630834  -0.0737844  )
        10           H   tau(  10) = (   0.0165540   0.2339292  -0.0044975  )
        11           H   tau(  11) = (   0.1355123   0.1674297   0.0928895  )
        12           H   tau(  12) = (   0.1703210  -0.1234369   0.1038027  )
        13           H   tau(  13) = (   0.0712710  -0.2231200   0.0126612  )
        14           H   tau(  14) = (   0.1864120  -0.1277549  -0.0628617  )
        15           H   tau(  15) = (  -0.0660459   0.0005480   0.2250853  )
        16           H   tau(  16) = (  -0.1849853   0.0670758   0.1276793  )
        17           H   tau(  17) = (  -0.1650959  -0.0991256   0.1339343  )

     number of k points=     1
                       cart. coord. in units 2pi/alat
        k(    1) = (   0.0000000   0.0000000   0.0000000), wk =   2.0000000

     Dense  grid:   922329 G-vectors     FFT dimensions: ( 125, 125, 125)

     Estimated max dynamical RAM per process >     422.69 MB

     Estimated total dynamical RAM >     845.38 MB

     Initial potential from superposition of free atoms

     starting charge   20.67139, renormalised to   32.00000

     negative rho (up, down):  8.453E-05 0.000E+00
     Starting wfcs are   37 randomized atomic wfcs

     total cpu time spent up to now is        4.6 secs

     Self-consistent Calculation

     iteration #  1     ecut=    90.00 Ry     beta= 0.50
     Davidson diagonalization with overlap
     ethr =  1.00E-04,  avg # of iterations = 14.0

     total cpu time spent up to now is       13.6 secs

     total energy              =     -53.05850841 Ry
     Harris-Foulkes estimate   =     -75.00189061 Ry
     estimated scf accuracy    <      34.31034990 Ry

     iteration #  2     ecut=    90.00 Ry     beta= 0.50
     Davidson diagonalization with overlap
     ethr =  1.00E-02,  avg # of iterations =  4.0

     total cpu time spent up to now is       20.3 secs

     total energy              =     -67.37877671 Ry
     Harris-Foulkes estimate   =     -71.68521373 Ry
     estimated scf accuracy    <       8.82323319 Ry

     iteration #  3     ecut=    90.00 Ry     beta= 0.50
     Davidson diagonalization with overlap
     ethr =  1.00E-02,  avg # of iterations =  2.0

     total cpu time spent up to now is       25.6 secs

     total energy              =     -67.99064013 Ry
     Harris-Foulkes estimate   =     -68.29038776 Ry
     estimated scf accuracy    <       1.08018909 Ry

     iteration #  4     ecut=    90.00 Ry     beta= 0.50
     Davidson diagonalization with overlap
     ethr =  3.38E-03,  avg # of iterations =  1.0

     total cpu time spent up to now is       29.9 secs

     total energy              =     -67.64869192 Ry
     Harris-Foulkes estimate   =     -68.01317972 Ry
     estimated scf accuracy    <       0.57113481 Ry

     iteration #  5     ecut=    90.00 Ry     beta= 0.50
     Davidson diagonalization with overlap
     ethr =  1.78E-03,  avg # of iterations =  2.0

     total cpu time spent up to now is       34.8 secs

     total energy              =     -67.74079579 Ry
     Harris-Foulkes estimate   =     -67.74628803 Ry
     estimated scf accuracy    <       0.01760409 Ry

     iteration #  6     ecut=    90.00 Ry     beta= 0.50
     Davidson diagonalization with overlap
     ethr =  5.50E-05,  avg # of iterations =  2.0

     total cpu time spent up to now is       40.0 secs

     total energy              =     -67.73877848 Ry
     Harris-Foulkes estimate   =     -67.74857561 Ry
     estimated scf accuracy    <       0.01716563 Ry

     iteration #  7     ecut=    90.00 Ry     beta= 0.50
     Davidson diagonalization with overlap
     ethr =  5.36E-05,  avg # of iterations =  2.0

     total cpu time spent up to now is       45.6 secs

     total energy              =     -67.74272356 Ry
     Harris-Foulkes estimate   =     -67.74271019 Ry
     estimated scf accuracy    <       0.00039036 Ry

     iteration #  8     ecut=    90.00 Ry     beta= 0.50
     Davidson diagonalization with overlap
     ethr =  1.22E-06,  avg # of iterations =  2.0

     negative rho (up, down):  7.345E-04 0.000E+00

     total cpu time spent up to now is       50.7 secs

     total energy              =     -67.74284202 Ry
     Harris-Foulkes estimate   =     -67.74280263 Ry
     estimated scf accuracy    <       0.00008824 Ry

     iteration #  9     ecut=    90.00 Ry     beta= 0.50
     Davidson diagonalization with overlap
     ethr =  2.76E-07,  avg # of iterations =  2.0

     negative rho (up, down):  2.291E-04 0.000E+00

     total cpu time spent up to now is       55.1 secs

     total energy              =     -67.74282436 Ry
     Harris-Foulkes estimate   =     -67.74284986 Ry
     estimated scf accuracy    <       0.00005650 Ry

     iteration # 10     ecut=    90.00 Ry     beta= 0.50
     Davidson diagonalization with overlap
     ethr =  1.77E-07,  avg # of iterations =  2.0

     total cpu time spent up to now is       60.5 secs

     total energy              =     -67.74283357 Ry
     Harris-Foulkes estimate   =     -67.74283423 Ry
     estimated scf accuracy    <       0.00000330 Ry

     iteration # 11     ecut=    90.00 Ry     beta= 0.50
     Davidson diagonalization with overlap
     ethr =  1.03E-08,  avg # of iterations =  2.0

     total cpu time spent up to now is       66.0 secs

     total energy              =     -67.74283363 Ry
     Harris-Foulkes estimate   =     -67.74283416 Ry
     estimated scf accuracy    <       0.00000109 Ry

     iteration # 12     ecut=    90.00 Ry     beta= 0.50
     Davidson diagonalization with overlap
     ethr =  3.42E-09,  avg # of iterations =  2.0

     total cpu time spent up to now is       71.3 secs

     total energy              =     -67.74283377 Ry
     Harris-Foulkes estimate   =     -67.74283379 Ry
     estimated scf accuracy    <       0.00000004 Ry

     iteration # 13     ecut=    90.00 Ry     beta= 0.50
     Davidson diagonalization with overlap
     ethr =  1.21E-10,  avg # of iterations =  2.0

     total cpu time spent up to now is       76.8 secs

     total energy              =     -67.74283378 Ry
     Harris-Foulkes estimate   =     -67.74283378 Ry
     estimated scf accuracy    <          6.3E-09 Ry

     iteration # 14     ecut=    90.00 Ry     beta= 0.50
     Davidson diagonalization with overlap
     ethr =  1.96E-11,  avg # of iterations =  2.0

     total cpu time spent up to now is       81.7 secs

     total energy              =     -67.74283378 Ry
     Harris-Foulkes estimate   =     -67.74283378 Ry
     estimated scf accuracy    <          2.5E-09 Ry

     iteration # 15     ecut=    90.00 Ry     beta= 0.50
     Davidson diagonalization with overlap
     ethr =  7.90E-12,  avg # of iterations =  2.0

     total cpu time spent up to now is       86.7 secs

     End of self-consistent calculation

          k = 0.0000 0.0000 0.0000 (115313 PWs)   bands (ev):

   -16.9917 -15.8163 -15.8148 -15.8137 -10.3584  -9.3430  -9.3419  -9.3415
    -8.9362  -8.9355  -8.4497  -8.4491  -8.4484  -6.3112  -6.3101  -6.3091

     highest occupied level (ev):    -6.3091

!    total energy              =     -67.74283378 Ry
     Harris-Foulkes estimate   =     -67.74283378 Ry
     estimated scf accuracy    <          4.2E-11 Ry

     The total energy is the sum of the following terms:

     one-electron contribution =    -222.50952102 Ry
     hartree contribution      =     115.41651741 Ry
     xc contribution           =     -25.13112304 Ry
     ewald contribution        =      64.48129287 Ry

     convergence has been achieved in  15 iterations

     Forces acting on atoms (cartesian axes, Ry/au):

     atom    1 type  3   force =    -0.00009978    0.00003571   -0.00007121
     atom    2 type  2   force =     0.00421829    0.00072716    0.00732383
     atom    3 type  2   force =    -0.00413476   -0.00728164   -0.00008795
     atom    4 type  2   force =    -0.00561122    0.00604612   -0.00075428
     atom    5 type  2   force =     0.00557067    0.00060095   -0.00615277
     atom    6 type  1   force =    -0.00514290   -0.00740777   -0.00248254
     atom    7 type  1   force =    -0.00678564    0.00584603   -0.00299540
     atom    8 type  1   force =     0.00397054    0.00014815   -0.00851157
     atom    9 type  1   force =     0.00662255    0.00272971   -0.00621107
     atom   10 type  1   force =    -0.00412429    0.00830842   -0.00061495
     atom   11 type  1   force =     0.00525871    0.00307160    0.00708744
     atom   12 type  1   force =     0.00581386   -0.00120714    0.00734330
     atom   13 type  1   force =    -0.00204156   -0.00910172    0.00004309
     atom   14 type  1   force =     0.00705279   -0.00155032   -0.00597871
     atom   15 type  1   force =     0.00217700    0.00060923    0.00892750
     atom   16 type  1   force =    -0.00709977    0.00584289    0.00132835
     atom   17 type  1   force =    -0.00564447   -0.00741737    0.00180693

     Total force =     0.036522     Total SCF correction =     0.000002

     Writing output data file TMS.save/
 
     init_run     :      4.37s CPU      4.52s WALL (       1 calls)
     electrons    :     81.53s CPU     82.19s WALL (       1 calls)
     forces       :      1.12s CPU      1.12s WALL (       1 calls)

     Called by init_run:
     wfcinit      :      2.45s CPU      2.51s WALL (       1 calls)
     potinit      :      1.04s CPU      1.09s WALL (       1 calls)
     hinit0       :      0.40s CPU      0.43s WALL (       1 calls)

     Called by electrons:
     c_bands      :     52.26s CPU     52.72s WALL (      15 calls)
     sum_band     :     11.45s CPU     11.50s WALL (      15 calls)
     v_of_rho     :     13.95s CPU     14.01s WALL (      16 calls)
     mix_rho      :      4.41s CPU      4.50s WALL (      15 calls)

     Called by c_bands:
     init_us_2    :      0.53s CPU      0.54s WALL (      31 calls)
     cegterg      :     51.89s CPU     52.35s WALL (      15 calls)

     Called by sum_band:

     Called by *egterg:
     h_psi        :     49.51s CPU     49.96s WALL (      59 calls)
     g_psi        :      0.36s CPU      0.36s WALL (      43 calls)
     cdiaghg      :      0.04s CPU      0.04s WALL (      58 calls)

     Called by h_psi:
     h_psi:pot    :     49.31s CPU     49.50s WALL (      59 calls)
     h_psi:calbec :      0.31s CPU      0.31s WALL (      59 calls)
     vloc_psi     :     48.68s CPU     48.87s WALL (      59 calls)
     add_vuspsi   :      0.32s CPU      0.32s WALL (      59 calls)

     General routines
     calbec       :      0.33s CPU      0.34s WALL (      63 calls)
     fft          :      9.31s CPU      9.35s WALL (     161 calls)
     ffts         :      0.85s CPU      0.85s WALL (      15 calls)
     fftw         :     48.18s CPU     48.36s WALL (    1784 calls)
 
     Parallel routines
     fft_scatt_xy :     10.36s CPU     10.40s WALL (    1960 calls)
     fft_scatt_yz :     18.89s CPU     18.95s WALL (    1960 calls)
 
     PWSCF        :   1m27.12s CPU   1m28.01s WALL

 
   This run was terminated on:  16:25:44  18Jul2019            

=------------------------------------------------------------------------------=
   JOB DONE.
=------------------------------------------------------------------------------=
