
     Program CP v.6.4.1 starts on 11Apr2020 at 14:35:39 

     This program is part of the open-source Quantum ESPRESSO suite
     for quantum simulation of materials; please cite
         "P. Giannozzi et al., J. Phys.:Condens. Matter 21 395502 (2009);
         "P. Giannozzi et al., J. Phys.:Condens. Matter 29 465901 (2017);
          URL http://www.quantum-espresso.org", 
     in publications or presentations arising from this work. More details at
     http://www.quantum-espresso.org/quote

     Parallel version (MPI), running on     2 processors

     MPI processes distributed on     1 nodes
     R & G space division:  proc/nbgrp/npool/nimage =       2
     Waiting for input...
     Reading input from standard input

   Job Title: MD Simulation


   Atomic Pseudopotentials Parameters
   ----------------------------------

   Reading pseudopotential for specie #  1 from file :
   /home/anonymous/quantumEspresso_2019/SSSP_precision_pseudos/Si.pbe-n-rrkjus_psl.1.0.0.UPF
   file type is UPF v.2


   Main Simulation Parameters (from input)
   ---------------------------------------
   Restart Mode       =       1   restart        
   Number of MD Steps =     500
   Print out every           10 MD Steps
   Reads from unit    =      50
   Writes to unit     =      51
   MD Simulation time step            =       5.00
   Electronic fictitious mass (emass) =     300.00
   emass cut-off                      =       2.50

   Simulation Cell Parameters (from input)
   external pressure       =            0.00 [KBar]
   wmass (calculated)      =        31123.88 [AU]
   ibrav =    8
   alat  =    10.64076206
   a1    =    10.64076206    0.00000000    0.00000000
   a2    =     0.00000000   10.64076206    0.00000000
   a3    =     0.00000000    0.00000000   10.64076206
 
   b1    =     0.09397823    0.00000000    0.00000000
   b2    =     0.00000000    0.09397823    0.00000000
   b3    =     0.00000000    0.00000000    0.09397823
   omega =    1204.80898162

   Energy Cut-offs
   ---------------
   Ecutwfc =   50.0 Ry,      Ecutrho =  400.0 Ry,      Ecuts =  200.0 Ry
   Gcutwfc =   12.0     ,    Gcutrho =   33.9          Gcuts =   24.0
   NOTA BENE: refg, mmx =   0.050000  9600
   Eigenvalues calculated without the kinetic term contribution
   Orthog. with lagrange multipliers : eps =   0.10E-10,  max =  30
   verlet algorithm for electron dynamics
   with friction frice =  0.0500 , grease =  1.0000
   Electron dynamics : the temperature is not controlled

   Electronic states
   -----------------
   Number of Electrons=    32, of States =    16
   Occupation numbers :
   2.00 2.00 2.00 2.00 2.00 2.00 2.00 2.00 2.00 2.00
   2.00 2.00 2.00 2.00 2.00 2.00


   Exchange and correlations functionals
   -------------------------------------
     Exchange-correlation      = PBE ( 1  4  3  4 0 0)


   Ions Simulation Parameters
   --------------------------
   Ions are not allowed to move
   Initial random displacement of ionic coordinates
    specie  amplitude
         1   0.030000
   Ionic position (from input)
   sorted by specie, and converted to real a.u. coordinates
   Species   1 atoms =    8 mass =     51196.73 (a.u.),        28.09 (amu) rcmax =   0.50 (a.u.)
        0.000000     0.000000     0.000000
        0.000000     5.320381     5.320381
        5.320381     5.320381     0.000000
        5.320381     0.000000     5.320381
        2.660191     2.660191     2.660191
        2.660191     7.980572     7.980572
        7.980572     7.980572     2.660191
        7.980572     2.660191     7.980572
   Ionic position will be re-read from restart file


   Cell Dynamics Parameters (from STDIN)
   -------------------------------------
   internal stress tensor calculated
   Starting cell generated from CELLDM
   Cell parameters will be re-read from restart file
   Constant VOLUME Molecular dynamics
   cell parameters are not allowed to move

   Verbosity: iverbosity =  0



   Simulation dimensions initialization
   ------------------------------------

   unit vectors of full simulation cell
   in real space:                         in reciprocal space (units 2pi/alat):
   1    10.6408    0.0000    0.0000              1.0000    0.0000    0.0000
   2     0.0000   10.6408    0.0000              0.0000    1.0000    0.0000
   3     0.0000    0.0000   10.6408              0.0000    0.0000    1.0000
 
     Parallelization info
     --------------------
     sticks:   dense  smooth     PW     G-vecs:    dense   smooth      PW
     Min        1795     894    218                81445    28774    3558
     Max        1798     895    219                81446    28781    3565
     Sum        3593    1789    437               162891    57555    7123
 
 
   Real Mesh
   ---------
   Global Dimensions   Local  Dimensions   Processor Grid
   .X.   .Y.   .Z.     .X.   .Y.   .Z.     .X.   .Y.   .Z.
    72    72    72      72    72    36       1     1     2
   Array leading dimensions ( nr1x, nr2x, nr3x )   =     72    72    72
   Local number of cell to store the grid ( nrxx ) =     186624
   Number of x-y planes for each processors: 
  |  72,  36  |  72,  36  |
 
   Smooth Real Mesh
   ----------------
   Global Dimensions   Local  Dimensions   Processor Grid
   .X.   .Y.   .Z.     .X.   .Y.   .Z.     .X.   .Y.   .Z.
    48    48    48      48    48    24       1     1     2
   Array leading dimensions ( nr1x, nr2x, nr3x )   =     48    48    48
   Local number of cell to store the grid ( nrxx ) =      55296
   Number of x-y planes for each processors: 
  |  48,  24  |  48,  24  |
 
   Small Box Real Mesh
   -------------------
   Global Dimensions   Local  Dimensions   Processor Grid
   .X.   .Y.   .Z.     .X.   .Y.   .Z.     .X.   .Y.   .Z.
    20    20    20      20    20    20       1     1     1
   Array leading dimensions ( nr1x, nr2x, nr3x )   =     20    20    20
   Local number of cell to store the grid ( nrxx ) =       8000
 
   unit vectors of box grid cell
   in real space:                         in reciprocal space:
       2.9558    0.0000    0.0000              1.0000    0.0000    0.0000
       0.0000    2.9558    0.0000              0.0000    1.0000    0.0000
       0.0000    0.0000    2.9558              0.0000    0.0000    1.0000
 
   Reciprocal Space Mesh
   ---------------------
   Large Mesh
     Global(ngm_g)    MinLocal       MaxLocal      Average
          81446          40723          40723       40723.00
   Smooth Mesh
     Global(ngms_g)   MinLocal       MaxLocal      Average
          28778          14387          14391       14389.00
   Wave function Mesh
     Global(ngw_g)    MinLocal       MaxLocal      Average
           3562           1779           1783        1781.00

   Small box Mesh
   ngb =         1716 not distributed to processors


   System geometry initialization
   ------------------------------
   cell parameters read from restart file
   ibrav =    8       cell parameters 


   cell at current step : h(t)
      10.64076       0.00000       0.00000
       0.00000      10.64076       0.00000
       0.00000       0.00000      10.64076

   cell at previous step : h(t-dt)
      10.64076       0.00000       0.00000
       0.00000      10.64076       0.00000
       0.00000       0.00000      10.64076
 
 
   unit vectors of box grid cell
   in real space:                         in reciprocal space:
       2.9558    0.0000    0.0000              1.0000    0.0000    0.0000
       0.0000    2.9558    0.0000              0.0000    1.0000    0.0000
       0.0000    0.0000    2.9558              0.0000    0.0000    1.0000

   Matrix Multiplication Performances
   ortho mmul, time for parallel driver      =   0.00000 with    1 procs

   Constraints matrixes will be distributed block like on
   ortho sub-group =    1*   1 procs



   Pseudopotentials initialization
   -------------------------------
  nlinit  nh(is), ngb, is, kkbeta, lmaxq =           18        1716           1
         829           5
 
                        qqq 
  -0.0772  -0.0666   0.0000   0.0000   0.0000   0.0000
  -0.0666  -0.0419   0.0000   0.0000   0.0000   0.0000
   0.0000   0.0000  -0.0095  -0.0249   0.0000   0.0000
   0.0000   0.0000  -0.0249  -0.0561   0.0000   0.0000
   0.0000   0.0000   0.0000   0.0000   0.0059   0.0065
   0.0000   0.0000   0.0000   0.0000   0.0065   0.0070
 


   Common initialization

   Specie:     1
   1  indv=  1   ang. mom=  0
   2  indv=  2   ang. mom=  0
   3  indv=  3   ang. mom=  1
   4  indv=  3   ang. mom=  1
   5  indv=  3   ang. mom=  1
   6  indv=  4   ang. mom=  1
   7  indv=  4   ang. mom=  1
   8  indv=  4   ang. mom=  1
   9  indv=  5   ang. mom=  2
  10  indv=  5   ang. mom=  2
  11  indv=  5   ang. mom=  2
  12  indv=  5   ang. mom=  2
  13  indv=  5   ang. mom=  2
  14  indv=  6   ang. mom=  2
  15  indv=  6   ang. mom=  2
  16  indv=  6   ang. mom=  2
  17  indv=  6   ang. mom=  2
  18  indv=  6   ang. mom=  2
 
                        dion 
   0.2480   0.2226   0.0000   0.0000   0.0000   0.0000
   0.2226   0.5178   0.0000   0.0000   0.0000   0.0000
   0.0000   0.0000   0.0832   0.0571   0.0000   0.0000
   0.0000   0.0000   0.0571   0.1029   0.0000   0.0000
   0.0000   0.0000   0.0000   0.0000  -0.0224  -0.0221
   0.0000   0.0000   0.0000   0.0000  -0.0221  -0.0218

   Cell parameters from input file are used in electron mass preconditioning
   init_tpiba2=    0.34866975
 
   Short Legend and Physical Units in the Output
   ---------------------------------------------
   NFI    [int]          - step index
   EKINC  [HARTREE A.U.] - kinetic energy of the fictitious electronic dynamics
   TEMPH  [K]            - Temperature of the fictitious cell dynamics
   TEMP   [K]            - Ionic temperature
   ETOT   [HARTREE A.U.] - Scf total energy (Kohn-Sham hamiltonian)
   ENTHAL [HARTREE A.U.] - Enthalpy ( ETOT + P * V )
   ECONS  [HARTREE A.U.] - Enthalpy + kinetic energy of ions and cell
   ECONT  [HARTREE A.U.] - Constant of motion for the CP lagrangian
 


   Randomization of SCALED ionic coordinates
   Species   1 atoms =    8
        Old Positions               New Positions
     0.000000  0.000000  0.000000    0.001292  0.000624  0.000742
     0.000000  0.500000  0.500000   -0.000114  0.499896  0.498839
     0.500000  0.500000  0.000000    0.500383  0.499511 -0.001317
     0.500000  0.000000  0.500000    0.500611  0.000201  0.499367
     0.250000  0.250000  0.250000    0.250859  0.249645  0.249642
     0.250000  0.750000  0.750000    0.248789  0.750140  0.749065
     0.750000  0.750000  0.250000    0.749584  0.749397  0.250521
     0.750000  0.250000  0.750000    0.751322  0.250887  0.749262

   formf: eself=   102.12922
   formf:     vps(g=0)=   0.0063764     rhops(g=0)=  -0.0033200
   formf:     vps(g=0)=   0.0061714     rhops(g=0)=  -0.0032485
   formf:     vps(g=0)=   0.0061714     rhops(g=0)=  -0.0032485
   formf:     vps(g=0)=   0.0061714     rhops(g=0)=  -0.0032485
   formf:     vps(g=0)=   0.0059723     rhops(g=0)=  -0.0031784
   formf: sum_g vps(g)=   2.4285170 sum_g rhops(g)=  -2.8750097
   Delta V(G=0):   0.020860Ry,    0.567639eV
 
  nfi     ekinc              temph  tempp     etot                 enthal               econs                econt              vnhh    xnhh0   vnhp    xnhp0
    230    0.000105293476728    0.0    0.00     -45.332260011497     -45.332260011497     -45.332260011497     -45.332154718021   0.0000   0.0000   0.0000   0.0000
    231    0.000349290578444    0.0    0.00     -45.332639145750     -45.332639145750     -45.332639145750     -45.332289855171   0.0000   0.0000   0.0000   0.0000
    232    0.000516768219617    0.0    0.00     -45.332923751682     -45.332923751682     -45.332923751682     -45.332406983462   0.0000   0.0000   0.0000   0.0000
    233    0.000493204926847    0.0    0.00     -45.332979020920     -45.332979020920     -45.332979020920     -45.332485815993   0.0000   0.0000   0.0000   0.0000
    234    0.000405774497262    0.0    0.00     -45.332966011323     -45.332966011323     -45.332966011323     -45.332560236825   0.0000   0.0000   0.0000   0.0000
    235    0.000347946024593    0.0    0.00     -45.332996527854     -45.332996527854     -45.332996527854     -45.332648581829   0.0000   0.0000   0.0000   0.0000
    236    0.000270091272482    0.0    0.00     -45.332986348659     -45.332986348659     -45.332986348659     -45.332716257386   0.0000   0.0000   0.0000   0.0000
    237    0.000161971956360    0.0    0.00     -45.332902560719     -45.332902560719     -45.332902560719     -45.332740588763   0.0000   0.0000   0.0000   0.0000
    238    0.000120540426035    0.0    0.00     -45.332876841073     -45.332876841073     -45.332876841073     -45.332756300647   0.0000   0.0000   0.0000   0.0000
    239    0.000184553040582    0.0    0.00     -45.332986760947     -45.332986760947     -45.332986760947     -45.332802207907   0.0000   0.0000   0.0000   0.0000
    240    0.000251663914142    0.0    0.00     -45.333116493565     -45.333116493565     -45.333116493565     -45.332864829651   0.0000   0.0000   0.0000   0.0000
    241    0.000226813715281    0.0    0.00     -45.333135047436     -45.333135047436     -45.333135047436     -45.332908233721   0.0000   0.0000   0.0000   0.0000
    242    0.000149820903675    0.0    0.00     -45.333079769608     -45.333079769608     -45.333079769608     -45.332929948704   0.0000   0.0000   0.0000   0.0000
    243    0.000110619070564    0.0    0.00     -45.333064348154     -45.333064348154     -45.333064348154     -45.332953729084   0.0000   0.0000   0.0000   0.0000
    244    0.000117063829998    0.0    0.00     -45.333102921076     -45.333102921076     -45.333102921076     -45.332985857246   0.0000   0.0000   0.0000   0.0000
    245    0.000117617443302    0.0    0.00     -45.333129220225     -45.333129220225     -45.333129220225     -45.333011602781   0.0000   0.0000   0.0000   0.0000
    246    0.000100557005139    0.0    0.00     -45.333127598714     -45.333127598714     -45.333127598714     -45.333027041709   0.0000   0.0000   0.0000   0.0000
    247    0.000095857159083    0.0    0.00     -45.333141334684     -45.333141334684     -45.333141334684     -45.333045477525   0.0000   0.0000   0.0000   0.0000
    248    0.000104837239787    0.0    0.00     -45.333176811874     -45.333176811874     -45.333176811874     -45.333071974634   0.0000   0.0000   0.0000   0.0000
    249    0.000095286965351    0.0    0.00     -45.333189606608     -45.333189606608     -45.333189606608     -45.333094319643   0.0000   0.0000   0.0000   0.0000
    250    0.000062081852859    0.0    0.00     -45.333166205183     -45.333166205183     -45.333166205183     -45.333104123330   0.0000   0.0000   0.0000   0.0000
    251    0.000039618877853    0.0    0.00     -45.333149433415     -45.333149433415     -45.333149433415     -45.333109814537   0.0000   0.0000   0.0000   0.0000
    252    0.000047246834959    0.0    0.00     -45.333169056823     -45.333169056823     -45.333169056823     -45.333121809988   0.0000   0.0000   0.0000   0.0000
    253    0.000062511976027    0.0    0.00     -45.333200019220     -45.333200019220     -45.333200019220     -45.333137507244   0.0000   0.0000   0.0000   0.0000
    254    0.000060203287437    0.0    0.00     -45.333209175130     -45.333209175130     -45.333209175130     -45.333148971843   0.0000   0.0000   0.0000   0.0000
    255    0.000046559512599    0.0    0.00     -45.333202914095     -45.333202914095     -45.333202914095     -45.333156354583   0.0000   0.0000   0.0000   0.0000
    256    0.000039373931868    0.0    0.00     -45.333204375846     -45.333204375846     -45.333204375846     -45.333165001914   0.0000   0.0000   0.0000   0.0000
    257    0.000038062175198    0.0    0.00     -45.333213007171     -45.333213007171     -45.333213007171     -45.333174944996   0.0000   0.0000   0.0000   0.0000
    258    0.000032107582203    0.0    0.00     -45.333213854344     -45.333213854344     -45.333213854344     -45.333181746762   0.0000   0.0000   0.0000   0.0000
    259    0.000023759470189    0.0    0.00     -45.333208934134     -45.333208934134     -45.333208934134     -45.333185174664   0.0000   0.0000   0.0000   0.0000
    260    0.000023251383836    0.0    0.00     -45.333212972499     -45.333212972499     -45.333212972499     -45.333189721115   0.0000   0.0000   0.0000   0.0000
    261    0.000029121637127    0.0    0.00     -45.333226180258     -45.333226180258     -45.333226180258     -45.333197058621   0.0000   0.0000   0.0000   0.0000
    262    0.000029811128330    0.0    0.00     -45.333233650340     -45.333233650340     -45.333233650340     -45.333203839212   0.0000   0.0000   0.0000   0.0000
    263    0.000022145702606    0.0    0.00     -45.333229729064     -45.333229729064     -45.333229729064     -45.333207583362   0.0000   0.0000   0.0000   0.0000
    264    0.000014890678603    0.0    0.00     -45.333224979263     -45.333224979263     -45.333224979263     -45.333210088584   0.0000   0.0000   0.0000   0.0000
    265    0.000013972898714    0.0    0.00     -45.333227618307     -45.333227618307     -45.333227618307     -45.333213645408   0.0000   0.0000   0.0000   0.0000
    266    0.000015193159946    0.0    0.00     -45.333232704674     -45.333232704674     -45.333232704674     -45.333217511514   0.0000   0.0000   0.0000   0.0000
    267    0.000013589387871    0.0    0.00     -45.333233643590     -45.333233643590     -45.333233643590     -45.333220054202   0.0000   0.0000   0.0000   0.0000
    268    0.000011050754758    0.0    0.00     -45.333232860805     -45.333232860805     -45.333232860805     -45.333221810050   0.0000   0.0000   0.0000   0.0000
    269    0.000010894903018    0.0    0.00     -45.333235156268     -45.333235156268     -45.333235156268     -45.333224261365   0.0000   0.0000   0.0000   0.0000
    270    0.000011424276515    0.0    0.00     -45.333238584399     -45.333238584399     -45.333238584399     -45.333227160123   0.0000   0.0000   0.0000   0.0000
    271    0.000009479115748    0.0    0.00     -45.333238599583     -45.333238599583     -45.333238599583     -45.333229120467   0.0000   0.0000   0.0000   0.0000
    272    0.000006278026473    0.0    0.00     -45.333236309086     -45.333236309086     -45.333236309086     -45.333230031059   0.0000   0.0000   0.0000   0.0000
    273    0.000005244981634    0.0    0.00     -45.333236332457     -45.333236332457     -45.333236332457     -45.333231087475   0.0000   0.0000   0.0000   0.0000
    274    0.000006376622026    0.0    0.00     -45.333239147229     -45.333239147229     -45.333239147229     -45.333232770607   0.0000   0.0000   0.0000   0.0000
    275    0.000006731074421    0.0    0.00     -45.333241045466     -45.333241045466     -45.333241045466     -45.333234314392   0.0000   0.0000   0.0000   0.0000
    276    0.000005312067690    0.0    0.00     -45.333240505251     -45.333240505251     -45.333240505251     -45.333235193183   0.0000   0.0000   0.0000   0.0000
    277    0.000003997165149    0.0    0.00     -45.333239880121     -45.333239880121     -45.333239880121     -45.333235882956   0.0000   0.0000   0.0000   0.0000
    278    0.000003947038553    0.0    0.00     -45.333240816586     -45.333240816586     -45.333240816586     -45.333236869548   0.0000   0.0000   0.0000   0.0000
    279    0.000004060630725    0.0    0.00     -45.333241930614     -45.333241930614     -45.333241930614     -45.333237869984   0.0000   0.0000   0.0000   0.0000
    280    0.000003376198593    0.0    0.00     -45.333241853515     -45.333241853515     -45.333241853515     -45.333238477317   0.0000   0.0000   0.0000   0.0000
    281    0.000002655188434    0.0    0.00     -45.333241548861     -45.333241548861     -45.333241548861     -45.333238893673   0.0000   0.0000   0.0000   0.0000
    282    0.000002735231921    0.0    0.00     -45.333242259585     -45.333242259585     -45.333242259585     -45.333239524353   0.0000   0.0000   0.0000   0.0000
    283    0.000003003761118    0.0    0.00     -45.333243290443     -45.333243290443     -45.333243290443     -45.333240286682   0.0000   0.0000   0.0000   0.0000
    284    0.000002546216268    0.0    0.00     -45.333243355567     -45.333243355567     -45.333243355567     -45.333240809351   0.0000   0.0000   0.0000   0.0000
    285    0.000001685909203    0.0    0.00     -45.333242746142     -45.333242746142     -45.333242746142     -45.333241060233   0.0000   0.0000   0.0000   0.0000
    286    0.000001341367919    0.0    0.00     -45.333242676232     -45.333242676232     -45.333242676232     -45.333241334864   0.0000   0.0000   0.0000   0.0000
    287    0.000001555819290    0.0    0.00     -45.333243302415     -45.333243302415     -45.333243302415     -45.333241746596   0.0000   0.0000   0.0000   0.0000
    288    0.000001634682423    0.0    0.00     -45.333243749257     -45.333243749257     -45.333243749257     -45.333242114575   0.0000   0.0000   0.0000   0.0000
    289    0.000001348965218    0.0    0.00     -45.333243683229     -45.333243683229     -45.333243683229     -45.333242334264   0.0000   0.0000   0.0000   0.0000
    290    0.000001119381960    0.0    0.00     -45.333243655146     -45.333243655146     -45.333243655146     -45.333242535764   0.0000   0.0000   0.0000   0.0000
    291    0.000001145687412    0.0    0.00     -45.333243966772     -45.333243966772     -45.333243966772     -45.333242821085   0.0000   0.0000   0.0000   0.0000
    292    0.000001115273724    0.0    0.00     -45.333244208651     -45.333244208651     -45.333244208651     -45.333243093377   0.0000   0.0000   0.0000   0.0000
    293    0.000000840614799    0.0    0.00     -45.333244085117     -45.333244085117     -45.333244085117     -45.333243244502   0.0000   0.0000   0.0000   0.0000
    294    0.000000590803985    0.0    0.00     -45.333243926355     -45.333243926355     -45.333243926355     -45.333243335551   0.0000   0.0000   0.0000   0.0000
    295    0.000000607553878    0.0    0.00     -45.333244086422     -45.333244086422     -45.333244086422     -45.333243478868   0.0000   0.0000   0.0000   0.0000
    296    0.000000720968917    0.0    0.00     -45.333244381484     -45.333244381484     -45.333244381484     -45.333243660515   0.0000   0.0000   0.0000   0.0000
    297    0.000000671398297    0.0    0.00     -45.333244464954     -45.333244464954     -45.333244464954     -45.333243793555   0.0000   0.0000   0.0000   0.0000
    298    0.000000510650808    0.0    0.00     -45.333244382698     -45.333244382698     -45.333244382698     -45.333243872047   0.0000   0.0000   0.0000   0.0000
    299    0.000000444023518    0.0    0.00     -45.333244407099     -45.333244407099     -45.333244407099     -45.333243963076   0.0000   0.0000   0.0000   0.0000

 * Physical Quantities at step:   300

   from rhoofr: total integrated electronic density
   in g-space =     32.000000   in r-space =    32.000000
     Total Electronic Pressure (GPa)        1.65212    300
     Pressure of Nuclei (GPa)             0.00000    300
     Pressure Total (GPa)             0.27576    300


                total energy =      -45.33324456044 Hartree a.u.
              kinetic energy =       12.47649 Hartree a.u.
        electrostatic energy =      -41.31439 Hartree a.u.
                         esr =        0.00000 Hartree a.u.
                       eself =      102.12922 Hartree a.u.
      pseudopotential energy =        3.12726 Hartree a.u.
  n-l pseudopotential energy =        4.92053 Hartree a.u.
 exchange-correlation energy =      -24.54315 Hartree a.u.
           average potential =        0.00000 Hartree a.u.



   Eigenvalues (eV), kp =   1 , spin =  1

   -6.44   -2.69   -2.67   -2.66   -2.65   -2.64   -2.63    2.22    2.22    2.22
    2.23    2.23    2.24    4.85    4.86    4.87
 
 
   CELL_PARAMETERS
   10.64076206    0.00000000    0.00000000
    0.00000000   10.64076206    0.00000000
    0.00000000    0.00000000   10.64076206

   System Density [g/cm^3] :              2.0898178971


   System Volume [A.U.^3] :           1204.8089816234


   Center of mass square displacement (a.u.):   0.000040

   Total stress (GPa)
        0.27991948        -0.03128047         0.00828032
       -0.03128047         0.26865822         0.05129935
        0.00828031         0.05129937         0.27870221
   ATOMIC_POSITIONS
   Si      0.13743153250937E-01     0.66421833969399E-02     0.78918035082805E-02
   Si     -0.12110290255943E-02     0.53192784868709E+01     0.53080297210714E+01
   Si      0.53244516670817E+01     0.53151805631288E+01    -0.14010874969364E-01
   Si      0.53268790190652E+01     0.21428031231399E-02     0.53136449026127E+01
   Si      0.26693286205581E+01     0.26564136525948E+01     0.26563849561206E+01
   Si      0.26473030892392E+01     0.79820635760401E+01     0.79706171280866E+01
   Si      0.79761501696467E+01     0.79741501976570E+01     0.26657377378859E+01
   Si      0.79946433036406E+01     0.26696331477105E+01     0.79727155840230E+01
 
   ATOMIC_VELOCITIES
   Si      0.00000000000000E+00     0.00000000000000E+00     0.00000000000000E+00
   Si      0.00000000000000E+00     0.00000000000000E+00     0.00000000000000E+00
   Si      0.00000000000000E+00     0.00000000000000E+00     0.00000000000000E+00
   Si      0.00000000000000E+00     0.00000000000000E+00     0.00000000000000E+00
   Si      0.00000000000000E+00     0.00000000000000E+00     0.00000000000000E+00
   Si      0.00000000000000E+00     0.00000000000000E+00     0.00000000000000E+00
   Si      0.00000000000000E+00     0.00000000000000E+00     0.00000000000000E+00
   Si      0.00000000000000E+00     0.00000000000000E+00     0.00000000000000E+00
 
   Forces acting on atoms (au):
   Si     -0.25109615261948E-02    -0.15543514431534E-02    -0.85104552521319E-03
   Si      0.11375302808799E-02     0.83626001104174E-03     0.80513596274888E-03
   Si     -0.17068109523011E-02     0.15751220902143E-02     0.91909900492170E-03
   Si     -0.13331758189185E-02    -0.11161660287884E-02     0.23413001353863E-02
   Si      0.23859576565691E-04     0.16921633833317E-02     0.95868371370871E-03
   Si      0.19653900527968E-02    -0.80173494735736E-03     0.94802221193410E-03
   Si      0.12710289343849E-02     0.14458326768270E-02    -0.25752615505241E-02
   Si     -0.56366869145642E-03    -0.20414589322904E-02     0.11183775181683E-02
 


   Partial temperatures (for each ionic specie) 
   Species  Temp (K)   Mean Square Displacement (a.u.)
        1   0.00E+00     1.6042E-04
 
  nfi     ekinc              temph  tempp     etot                 enthal               econs                econt              vnhh    xnhh0   vnhp    xnhp0
    300    0.000000476301550    0.0    0.00     -45.333244560445     -45.333244560445     -45.333244560445     -45.333244084143   0.0000   0.0000   0.0000   0.0000

   writing restart file (with schema): ./outdir/si_51.save/
     restart      :      0.02s CPU      0.03s WALL (       1 calls)
    301    0.000000455811251    0.0    0.00     -45.333244641373     -45.333244641373     -45.333244641373     -45.333244185562   0.0000   0.0000   0.0000   0.0000
    302    0.000000357221023    0.0    0.00     -45.333244602380     -45.333244602380     -45.333244602380     -45.333244245159   0.0000   0.0000   0.0000   0.0000
    303    0.000000298806714    0.0    0.00     -45.333244599508     -45.333244599508     -45.333244599508     -45.333244300702   0.0000   0.0000   0.0000   0.0000
    304    0.000000319615752    0.0    0.00     -45.333244698705     -45.333244698705     -45.333244698705     -45.333244379090   0.0000   0.0000   0.0000   0.0000
    305    0.000000325237965    0.0    0.00     -45.333244780659     -45.333244780659     -45.333244780659     -45.333244455421   0.0000   0.0000   0.0000   0.0000
    306    0.000000261639514    0.0    0.00     -45.333244764110     -45.333244764110     -45.333244764110     -45.333244502470   0.0000   0.0000   0.0000   0.0000
    307    0.000000196270790    0.0    0.00     -45.333244731331     -45.333244731331     -45.333244731331     -45.333244535060   0.0000   0.0000   0.0000   0.0000
    308    0.000000191676967    0.0    0.00     -45.333244771343     -45.333244771343     -45.333244771343     -45.333244579666   0.0000   0.0000   0.0000   0.0000
    309    0.000000209485195    0.0    0.00     -45.333244841184     -45.333244841184     -45.333244841184     -45.333244631699   0.0000   0.0000   0.0000   0.0000
    310    0.000000190317638    0.0    0.00     -45.333244860549     -45.333244860549     -45.333244860549     -45.333244670231   0.0000   0.0000   0.0000   0.0000
    311    0.000000149121814    0.0    0.00     -45.333244844243     -45.333244844243     -45.333244844243     -45.333244695121   0.0000   0.0000   0.0000   0.0000
    312    0.000000133355136    0.0    0.00     -45.333244856432     -45.333244856432     -45.333244856432     -45.333244723077   0.0000   0.0000   0.0000   0.0000
    313    0.000000139337454    0.0    0.00     -45.333244896729     -45.333244896729     -45.333244896729     -45.333244757392   0.0000   0.0000   0.0000   0.0000
    314    0.000000128740758    0.0    0.00     -45.333244913977     -45.333244913977     -45.333244913977     -45.333244785236   0.0000   0.0000   0.0000   0.0000
    315    0.000000098461045    0.0    0.00     -45.333244900165     -45.333244900165     -45.333244900165     -45.333244801704   0.0000   0.0000   0.0000   0.0000
    316    0.000000080536998    0.0    0.00     -45.333244897461     -45.333244897461     -45.333244897461     -45.333244816924   0.0000   0.0000   0.0000   0.0000
    317    0.000000084801343    0.0    0.00     -45.333244922656     -45.333244922656     -45.333244922656     -45.333244837855   0.0000   0.0000   0.0000   0.0000
    318    0.000000086824587    0.0    0.00     -45.333244945216     -45.333244945216     -45.333244945216     -45.333244858392   0.0000   0.0000   0.0000   0.0000
    319    0.000000072324125    0.0    0.00     -45.333244944212     -45.333244944212     -45.333244944212     -45.333244871888   0.0000   0.0000   0.0000   0.0000
    320    0.000000057063531    0.0    0.00     -45.333244938962     -45.333244938962     -45.333244938962     -45.333244881899   0.0000   0.0000   0.0000   0.0000
    321    0.000000055593649    0.0    0.00     -45.333244950160     -45.333244950160     -45.333244950160     -45.333244894566   0.0000   0.0000   0.0000   0.0000
    322    0.000000058419360    0.0    0.00     -45.333244966892     -45.333244966892     -45.333244966892     -45.333244908472   0.0000   0.0000   0.0000   0.0000
    323    0.000000051987808    0.0    0.00     -45.333244970635     -45.333244970635     -45.333244970635     -45.333244918647   0.0000   0.0000   0.0000   0.0000
    324    0.000000041066295    0.0    0.00     -45.333244966571     -45.333244966571     -45.333244966571     -45.333244925505   0.0000   0.0000   0.0000   0.0000
    325    0.000000037333839    0.0    0.00     -45.333244970751     -45.333244970751     -45.333244970751     -45.333244933418   0.0000   0.0000   0.0000   0.0000
    326    0.000000039062055    0.0    0.00     -45.333244982162     -45.333244982162     -45.333244982162     -45.333244943100   0.0000   0.0000   0.0000   0.0000
    327    0.000000036212701    0.0    0.00     -45.333244987377     -45.333244987377     -45.333244987377     -45.333244951164   0.0000   0.0000   0.0000   0.0000
    328    0.000000028057114    0.0    0.00     -45.333244984286     -45.333244984286     -45.333244984286     -45.333244956229   0.0000   0.0000   0.0000   0.0000
    329    0.000000022806832    0.0    0.00     -45.333244983490     -45.333244983490     -45.333244983490     -45.333244960683   0.0000   0.0000   0.0000   0.0000

   MAIN:          EKINC   (thr)          DETOT   (thr)       MAXFORCE   (thr)
   MAIN:   0.228068D-07  0.1D-06  0.795836D-09  0.1D-08  0.000000D+00  0.1D+11
   MAIN: convergence achieved for system relaxation

 * Physical Quantities at step:   330
     Pressure of Nuclei (GPa)             0.00000    330
     Pressure Total (GPa)             0.27602    330


                total energy =      -45.33324498939 Hartree a.u.
              kinetic energy =       12.47651 Hartree a.u.
        electrostatic energy =      -41.31440 Hartree a.u.
                         esr =        0.00000 Hartree a.u.
                       eself =      102.12922 Hartree a.u.
      pseudopotential energy =        3.12727 Hartree a.u.
  n-l pseudopotential energy =        4.92054 Hartree a.u.
 exchange-correlation energy =      -24.54316 Hartree a.u.
           average potential =        0.00000 Hartree a.u.



   Eigenvalues (eV), kp =   1 , spin =  1

   -6.44   -2.69   -2.67   -2.66   -2.65   -2.64   -2.63    2.22    2.22    2.22
    2.23    2.23    2.24    4.85    4.86    4.87
 
 
   CELL_PARAMETERS
   10.64076206    0.00000000    0.00000000
    0.00000000   10.64076206    0.00000000
    0.00000000    0.00000000   10.64076206

   System Density [g/cm^3] :              2.0898178971


   System Volume [A.U.^3] :           1204.8089816234


   Center of mass square displacement (a.u.):   0.000040

   Total stress (GPa)
        0.28005505        -0.03062881         0.00794506
       -0.03062881         0.26904187         0.04941819
        0.00794505         0.04941821         0.27895335
   ATOMIC_POSITIONS
   Si      0.13743153250937E-01     0.66421833969399E-02     0.78918035082805E-02
   Si     -0.12110290255943E-02     0.53192784868709E+01     0.53080297210714E+01
   Si      0.53244516670817E+01     0.53151805631288E+01    -0.14010874969364E-01
   Si      0.53268790190652E+01     0.21428031231399E-02     0.53136449026127E+01
   Si      0.26693286205581E+01     0.26564136525948E+01     0.26563849561206E+01
   Si      0.26473030892392E+01     0.79820635760401E+01     0.79706171280866E+01
   Si      0.79761501696467E+01     0.79741501976570E+01     0.26657377378859E+01
   Si      0.79946433036406E+01     0.26696331477105E+01     0.79727155840230E+01
 
   ATOMIC_VELOCITIES
   Si      0.00000000000000E+00     0.00000000000000E+00     0.00000000000000E+00
   Si      0.00000000000000E+00     0.00000000000000E+00     0.00000000000000E+00
   Si      0.00000000000000E+00     0.00000000000000E+00     0.00000000000000E+00
   Si      0.00000000000000E+00     0.00000000000000E+00     0.00000000000000E+00
   Si      0.00000000000000E+00     0.00000000000000E+00     0.00000000000000E+00
   Si      0.00000000000000E+00     0.00000000000000E+00     0.00000000000000E+00
   Si      0.00000000000000E+00     0.00000000000000E+00     0.00000000000000E+00
   Si      0.00000000000000E+00     0.00000000000000E+00     0.00000000000000E+00
 
   Forces acting on atoms (au):
   Si     -0.23811563224722E-02    -0.14755996422666E-02    -0.82072238216885E-03
   Si      0.10860199802634E-02     0.82573349819974E-03     0.78323848350748E-03
   Si     -0.16678306947672E-02     0.14982559807602E-02     0.91070835264030E-03
   Si     -0.13179624099750E-02    -0.10859893768310E-02     0.22184837019361E-02
   Si      0.14875913523643E-04     0.16432158600840E-02     0.93694644578699E-03
   Si      0.18991266344596E-02    -0.80959877841478E-03     0.87615171554899E-03
   Si      0.12972648421984E-02     0.13893500807663E-02    -0.24583804087898E-02
   Si     -0.49696580729767E-03    -0.19213774617972E-02     0.10348330603060E-02
 


   Partial temperatures (for each ionic specie) 
   Species  Temp (K)   Mean Square Displacement (a.u.)
        1   0.00E+00     1.6042E-04
    330    0.000000023165097    0.0    0.00     -45.333244989394     -45.333244989394     -45.333244989394     -45.333244966229   0.0000   0.0000   0.0000   0.0000

   writing restart file (with schema): ./outdir/si_51.save/
     restart      :      0.03s CPU      0.06s WALL (       2 calls)


   Averaged Physical Quantities
                      accumulated      this run
   ekinc         :        1.12064       0.00005 (AU)
   ekin          :       13.68505      12.47660 (AU)
   epot          :      -62.47526     -62.73035 (AU)
   total energy  :      -43.91637     -45.33319 (AU)
   temperature   :        0.00000       0.00000 (K )
   enthalpy      :      -43.91637     -45.33319 (AU)
   econs         :      -43.91637     -45.33319 (AU)
   pressure      :       19.81083       0.27760 (Gpa)
   volume        :     1204.80898    1204.80898 (AU)



     Called by MAIN_LOOP:
     initialize   :     10.05s CPU     10.12s WALL (       1 calls)
     main_loop    :     87.47s CPU     88.00s WALL (     101 calls)
     cpr_total    :     87.51s CPU     88.06s WALL (       1 calls)

     Called by INIT_RUN:
     init_readfil :      0.04s CPU      0.05s WALL (       1 calls)

     Called by CPR:
     cpr_md       :     87.51s CPU     88.06s WALL (     101 calls)
     move_electro :     83.87s CPU     84.39s WALL (     101 calls)

     Called by move_electrons:
     rhoofr       :     26.70s CPU     26.90s WALL (     101 calls)
     vofrho       :     23.22s CPU     23.29s WALL (     101 calls)
     dforce       :      3.61s CPU      3.66s WALL (     808 calls)
     calphi       :      0.22s CPU      0.22s WALL (     101 calls)
     newd         :     28.56s CPU     28.75s WALL (     101 calls)
     nlfl         :      0.02s CPU      0.02s WALL (     101 calls)

     Called by ortho:
     ortho_iter   :      0.01s CPU      0.01s WALL (     101 calls)
     rsg          :      0.01s CPU      0.01s WALL (     101 calls)
     rhoset       :      0.03s CPU      0.03s WALL (     101 calls)
     sigset       :      0.02s CPU      0.02s WALL (     101 calls)
     tauset       :      0.02s CPU      0.02s WALL (     101 calls)
     ortho        :      0.72s CPU      0.72s WALL (     101 calls)
     updatc       :      0.02s CPU      0.02s WALL (     101 calls)

     Small boxes:
     rhov         :      1.99s CPU      2.00s WALL (     101 calls)
     fftb         :     19.06s CPU     19.16s WALL (  113930 calls)
     set_cc       :      0.30s CPU      0.30s WALL (     101 calls)
     forcecc      :      0.41s CPU      0.41s WALL (     101 calls)

     Low-level routines:
     prefor       :      0.18s CPU      0.18s WALL (     102 calls)
     nlfq         :      0.98s CPU      0.98s WALL (     101 calls)
     nlsm1        :      0.62s CPU      0.63s WALL (     304 calls)
     nlsm2        :      0.95s CPU      0.95s WALL (     101 calls)
     fft          :     20.91s CPU     21.04s WALL (    2022 calls)
     ffts         :      0.53s CPU      0.53s WALL (     202 calls)
     fftw         :      2.65s CPU      2.67s WALL (    2424 calls)
     fft_scatt_xy :      2.64s CPU      2.66s WALL (    4648 calls)
     fft_scatt_yz :     11.13s CPU     11.20s WALL (    4648 calls)
     fft_scatt_tg :      0.45s CPU      0.46s WALL (    2424 calls)
     betagx       :      6.40s CPU      6.40s WALL (       1 calls)
     qradx        :      2.89s CPU      2.90s WALL (       1 calls)
     nlinit       :      9.98s CPU     10.03s WALL (       1 calls)
     init_dim     :      0.02s CPU      0.02s WALL (       1 calls)
     newnlinit    :      0.08s CPU      0.11s WALL (       1 calls)
     from_restart :      0.03s CPU      0.04s WALL (       1 calls)
     strucf       :      0.00s CPU      0.00s WALL (       1 calls)
     calbec       :      0.00s CPU      0.00s WALL (     102 calls)
 
 
     CP           :   1m38.06s CPU   1m38.67s WALL

 
   This run was terminated on:  14:37:17  11Apr2020            

=------------------------------------------------------------------------------=
   JOB DONE.
=------------------------------------------------------------------------------=
