
     Program CP v.6.4.1 starts on 11Apr2020 at 19:15: 2 

     This program is part of the open-source Quantum ESPRESSO suite
     for quantum simulation of materials; please cite
         "P. Giannozzi et al., J. Phys.:Condens. Matter 21 395502 (2009);
         "P. Giannozzi et al., J. Phys.:Condens. Matter 29 465901 (2017);
          URL http://www.quantum-espresso.org", 
     in publications or presentations arising from this work. More details at
     http://www.quantum-espresso.org/quote

     Parallel version (MPI), running on     2 processors

     MPI processes distributed on     1 nodes
     R & G space division:  proc/nbgrp/npool/nimage =       2
     Waiting for input...
     Reading input from standard input

   Job Title: MD Simulation


   Atomic Pseudopotentials Parameters
   ----------------------------------

   Reading pseudopotential for specie #  1 from file :
   /home/anonymous/quantumEspresso_2019/SSSP_precision_pseudos/Si.pbe-n-rrkjus_psl.1.0.0.UPF
   file type is UPF v.2


   Main Simulation Parameters (from input)
   ---------------------------------------
   Restart Mode       =       0   reset_counters 
   Number of MD Steps =    2000
   Print out every           10 MD Steps
   Reads from unit    =      51
   Writes to unit     =      52
   MD Simulation time step            =       5.00
   Electronic fictitious mass (emass) =     300.00
   emass cut-off                      =       2.50

   Simulation Cell Parameters (from input)
   external pressure       =            0.00 [KBar]
   wmass (calculated)      =        31123.88 [AU]
   ibrav =    8
   alat  =    10.64076206
   a1    =    10.64076206    0.00000000    0.00000000
   a2    =     0.00000000   10.64076206    0.00000000
   a3    =     0.00000000    0.00000000   10.64076206
 
   b1    =     0.09397823    0.00000000    0.00000000
   b2    =     0.00000000    0.09397823    0.00000000
   b3    =     0.00000000    0.00000000    0.09397823
   omega =    1204.80898162

   Energy Cut-offs
   ---------------
   Ecutwfc =   50.0 Ry,      Ecutrho =  400.0 Ry,      Ecuts =  200.0 Ry
   Gcutwfc =   12.0     ,    Gcutrho =   33.9          Gcuts =   24.0
   NOTA BENE: refg, mmx =   0.050000  9600
   Eigenvalues calculated without the kinetic term contribution
   Orthog. with lagrange multipliers : eps =   0.10E-10,  max = 300
   Electron dynamics with newton equations
   Electron dynamics : the temperature is not controlled

   Electronic states
   -----------------
   Number of Electrons=    32, of States =    16
   Occupation numbers :
   2.00 2.00 2.00 2.00 2.00 2.00 2.00 2.00 2.00 2.00
   2.00 2.00 2.00 2.00 2.00 2.00


   Exchange and correlations functionals
   -------------------------------------
     Exchange-correlation      = PBE ( 1  4  3  4 0 0)


   Ions Simulation Parameters
   --------------------------
   Ions are allowed to move
   Ions dynamics with newton equations
   the temperature is computed for    24 degrees of freedom
   ion dynamics with fricp =  0.0000 and greasp =  1.0000
   Zero initial momentum for ions
   Ionic position (from input)
   sorted by specie, and converted to real a.u. coordinates
   Species   1 atoms =    8 mass =     51196.73 (a.u.),        28.09 (amu) rcmax =   0.50 (a.u.)
        0.000000     0.000000     0.000000
        0.000000     5.320381     5.320381
        5.320381     5.320381     0.000000
        5.320381     0.000000     5.320381
        2.660191     2.660191     2.660191
        2.660191     7.980572     7.980572
        7.980572     7.980572     2.660191
        7.980572     2.660191     7.980572
   Ionic position will be re-read from restart file

   All atoms are allowed to move
   Ionic temperature control via nose thermostat


   ion dynamics with nose` temperature control:
   temperature required      =   40.00000 (kelvin) 
   NH chain length           =   1
   active degrees of freedom =     24
   time steps per nose osc.  =    330


   nose` frequency(es)       =      25.000


   the requested type of NH chains is     0
   total number of thermostats used     1 0 0
   ionic degrees of freedom for each chain   24


   nose` mass(es) for chain    1 =     421.167


   atom i (in sorted order) is assigned to this thermostat :
   1   1   1   1   1   1   1   1


   Cell Dynamics Parameters (from STDIN)
   -------------------------------------
   Starting cell generated from CELLDM
   Cell parameters will be re-read from restart file
   Constant VOLUME Molecular dynamics
   cell parameters are not allowed to move

   Verbosity: iverbosity =  0



   Simulation dimensions initialization
   ------------------------------------

   unit vectors of full simulation cell
   in real space:                         in reciprocal space (units 2pi/alat):
   1    10.6408    0.0000    0.0000              1.0000    0.0000    0.0000
   2     0.0000   10.6408    0.0000              0.0000    1.0000    0.0000
   3     0.0000    0.0000   10.6408              0.0000    0.0000    1.0000
 
     Parallelization info
     --------------------
     sticks:   dense  smooth     PW     G-vecs:    dense   smooth      PW
     Min        1795     894    218                81445    28774    3558
     Max        1798     895    219                81446    28781    3565
     Sum        3593    1789    437               162891    57555    7123
 
 
   Real Mesh
   ---------
   Global Dimensions   Local  Dimensions   Processor Grid
   .X.   .Y.   .Z.     .X.   .Y.   .Z.     .X.   .Y.   .Z.
    72    72    72      72    72    36       1     1     2
   Array leading dimensions ( nr1x, nr2x, nr3x )   =     72    72    72
   Local number of cell to store the grid ( nrxx ) =     186624
   Number of x-y planes for each processors: 
  |  72,  36  |  72,  36  |
 
   Smooth Real Mesh
   ----------------
   Global Dimensions   Local  Dimensions   Processor Grid
   .X.   .Y.   .Z.     .X.   .Y.   .Z.     .X.   .Y.   .Z.
    48    48    48      48    48    24       1     1     2
   Array leading dimensions ( nr1x, nr2x, nr3x )   =     48    48    48
   Local number of cell to store the grid ( nrxx ) =      55296
   Number of x-y planes for each processors: 
  |  48,  24  |  48,  24  |
 
   Small Box Real Mesh
   -------------------
   Global Dimensions   Local  Dimensions   Processor Grid
   .X.   .Y.   .Z.     .X.   .Y.   .Z.     .X.   .Y.   .Z.
    20    20    20      20    20    20       1     1     1
   Array leading dimensions ( nr1x, nr2x, nr3x )   =     20    20    20
   Local number of cell to store the grid ( nrxx ) =       8000
 
   unit vectors of box grid cell
   in real space:                         in reciprocal space:
       2.9558    0.0000    0.0000              1.0000    0.0000    0.0000
       0.0000    2.9558    0.0000              0.0000    1.0000    0.0000
       0.0000    0.0000    2.9558              0.0000    0.0000    1.0000
 
   Reciprocal Space Mesh
   ---------------------
   Large Mesh
     Global(ngm_g)    MinLocal       MaxLocal      Average
          81446          40723          40723       40723.00
   Smooth Mesh
     Global(ngms_g)   MinLocal       MaxLocal      Average
          28778          14387          14391       14389.00
   Wave function Mesh
     Global(ngw_g)    MinLocal       MaxLocal      Average
           3562           1779           1783        1781.00

   Small box Mesh
   ngb =         1716 not distributed to processors


   System geometry initialization
   ------------------------------
   cell parameters read from restart file
   ibrav =    8       cell parameters 


   cell at current step : h(t)
      10.64076       0.00000       0.00000
       0.00000      10.64076       0.00000
       0.00000       0.00000      10.64076

   cell at previous step : h(t-dt)
      10.64076       0.00000       0.00000
       0.00000      10.64076       0.00000
       0.00000       0.00000      10.64076
 
 
   unit vectors of box grid cell
   in real space:                         in reciprocal space:
       2.9558    0.0000    0.0000              1.0000    0.0000    0.0000
       0.0000    2.9558    0.0000              0.0000    1.0000    0.0000
       0.0000    0.0000    2.9558              0.0000    0.0000    1.0000

   Matrix Multiplication Performances
   ortho mmul, time for parallel driver      =   0.00000 with    1 procs

   Constraints matrixes will be distributed block like on
   ortho sub-group =    1*   1 procs



   Pseudopotentials initialization
   -------------------------------
  nlinit  nh(is), ngb, is, kkbeta, lmaxq =           18        1716           1
         829           5
 
                        qqq 
  -0.0772  -0.0666   0.0000   0.0000   0.0000   0.0000
  -0.0666  -0.0419   0.0000   0.0000   0.0000   0.0000
   0.0000   0.0000  -0.0095  -0.0249   0.0000   0.0000
   0.0000   0.0000  -0.0249  -0.0561   0.0000   0.0000
   0.0000   0.0000   0.0000   0.0000   0.0059   0.0065
   0.0000   0.0000   0.0000   0.0000   0.0065   0.0070
 


   Common initialization

   Specie:     1
   1  indv=  1   ang. mom=  0
   2  indv=  2   ang. mom=  0
   3  indv=  3   ang. mom=  1
   4  indv=  3   ang. mom=  1
   5  indv=  3   ang. mom=  1
   6  indv=  4   ang. mom=  1
   7  indv=  4   ang. mom=  1
   8  indv=  4   ang. mom=  1
   9  indv=  5   ang. mom=  2
  10  indv=  5   ang. mom=  2
  11  indv=  5   ang. mom=  2
  12  indv=  5   ang. mom=  2
  13  indv=  5   ang. mom=  2
  14  indv=  6   ang. mom=  2
  15  indv=  6   ang. mom=  2
  16  indv=  6   ang. mom=  2
  17  indv=  6   ang. mom=  2
  18  indv=  6   ang. mom=  2
 
                        dion 
   0.2480   0.2226   0.0000   0.0000   0.0000   0.0000
   0.2226   0.5178   0.0000   0.0000   0.0000   0.0000
   0.0000   0.0000   0.0832   0.0571   0.0000   0.0000
   0.0000   0.0000   0.0571   0.1029   0.0000   0.0000
   0.0000   0.0000   0.0000   0.0000  -0.0224  -0.0221
   0.0000   0.0000   0.0000   0.0000  -0.0221  -0.0218

   Cell parameters from input file are used in electron mass preconditioning
   init_tpiba2=    0.34866975
 
   Short Legend and Physical Units in the Output
   ---------------------------------------------
   NFI    [int]          - step index
   EKINC  [HARTREE A.U.] - kinetic energy of the fictitious electronic dynamics
   TEMPH  [K]            - Temperature of the fictitious cell dynamics
   TEMP   [K]            - Ionic temperature
   ETOT   [HARTREE A.U.] - Scf total energy (Kohn-Sham hamiltonian)
   ENTHAL [HARTREE A.U.] - Enthalpy ( ETOT + P * V )
   ECONS  [HARTREE A.U.] - Enthalpy + kinetic energy of ions and cell
   ECONT  [HARTREE A.U.] - Constant of motion for the CP lagrangian
 
 Ionic velocities set to zero
 Electronic velocities set to zero

   formf: eself=   102.12922
   formf:     vps(g=0)=   0.0063764     rhops(g=0)=  -0.0033200
   formf:     vps(g=0)=   0.0061714     rhops(g=0)=  -0.0032485
   formf:     vps(g=0)=   0.0061714     rhops(g=0)=  -0.0032485
   formf:     vps(g=0)=   0.0061714     rhops(g=0)=  -0.0032485
   formf:     vps(g=0)=   0.0059723     rhops(g=0)=  -0.0031784
   formf: sum_g vps(g)=   2.4285170 sum_g rhops(g)=  -2.8750097
   Delta V(G=0):   0.020860Ry,    0.567639eV
 
  nfi     ekinc              temph  tempp     etot                 enthal               econs                econt              vnhh    xnhh0   vnhp    xnhp0
      1    0.000000001582648    0.0    0.00     -45.333244994826     -45.333244994826     -45.333244991989     -45.333244921829   0.0000   0.0000  -0.0000   0.0000
      2    0.000000006327660    0.0    0.00     -45.333245022891     -45.333245022891     -45.333244997378     -45.333244922480   0.0000   0.0000  -0.0001  -0.0002
      3    0.000000011565637    0.0    0.00     -45.333245073726     -45.333245073726     -45.333245002957     -45.333244922860   0.0000   0.0000  -0.0001  -0.0005
      4    0.000000013905693    0.0    0.00     -45.333245143313     -45.333245143313     -45.333245004846     -45.333244922528   0.0000   0.0000  -0.0001  -0.0011
      5    0.000000013541904    0.0    0.01     -45.333245232170     -45.333245232170     -45.333245003664     -45.333244921983   0.0000   0.0000  -0.0002  -0.0018
      6    0.000000011912373    0.0    0.01     -45.333245341994     -45.333245341994     -45.333245001102     -45.333244921574   0.0000   0.0000  -0.0002  -0.0027
      7    0.000000009743885    0.0    0.01     -45.333245473179     -45.333245473179     -45.333244997420     -45.333244920957   0.0000   0.0000  -0.0002  -0.0038
      8    0.000000008447735    0.0    0.02     -45.333245627099     -45.333245627099     -45.333244993740     -45.333244919989   0.0000   0.0000  -0.0003  -0.0051
      9    0.000000010452179    0.0    0.02     -45.333245806944     -45.333245806944     -45.333244992932     -45.333244919282   0.0000   0.0000  -0.0003  -0.0065
     10    0.000000015950820    0.0    0.03     -45.333246013433     -45.333246013433     -45.333244995357     -45.333244919201   0.0000   0.0000  -0.0003  -0.0081
     11    0.000000021252815    0.0    0.03     -45.333246242360     -45.333246242360     -45.333244996429     -45.333244919077   0.0000   0.0000  -0.0004  -0.0099
     12    0.000000022671192    0.0    0.04     -45.333246489418     -45.333246489418     -45.333244991440     -45.333244918136   0.0000   0.0000  -0.0004  -0.0119
     13    0.000000020821685    0.0    0.05     -45.333246755668     -45.333246755668     -45.333244981031     -45.333244916687   0.0000   0.0000  -0.0005  -0.0141
     14    0.000000019061170    0.0    0.05     -45.333247045384     -45.333247045384     -45.333244969076     -45.333244915550   0.0000   0.0000  -0.0005  -0.0164
     15    0.000000018966577    0.0    0.06     -45.333247360178     -45.333247360178     -45.333244956867     -45.333244914776   0.0000   0.0000  -0.0005  -0.0189
     16    0.000000019756726    0.0    0.07     -45.333247698507     -45.333247698507     -45.333244942680     -45.333244913789   0.0000   0.0000  -0.0006  -0.0216
     17    0.000000021143678    0.0    0.08     -45.333248059635     -45.333248059635     -45.333244925770     -45.333244912521   0.0000   0.0000  -0.0006  -0.0245
     18    0.000000023766242    0.0    0.09     -45.333248444163     -45.333248444163     -45.333244906823     -45.333244911438   0.0000   0.0000  -0.0006  -0.0276
     19    0.000000026967500    0.0    0.10     -45.333248850890     -45.333248850890     -45.333244884675     -45.333244910482   0.0000   0.0000  -0.0007  -0.0308
     20    0.000000029149791    0.0    0.12     -45.333249277298     -45.333249277298     -45.333244856607     -45.333244909003   0.0000   0.0000  -0.0007  -0.0343
     21    0.000000030968214    0.0    0.13     -45.333249724038     -45.333249724038     -45.333244822680     -45.333244906912   0.0000   0.0000  -0.0007  -0.0379
     22    0.000000035480442    0.0    0.14     -45.333250195432     -45.333250195432     -45.333244786200     -45.333244904995   0.0000   0.0000  -0.0008  -0.0417
     23    0.000000043895796    0.0    0.16     -45.333250693906     -45.333250693906     -45.333244748241     -45.333244903694   0.0000   0.0000  -0.0008  -0.0456
     24    0.000000053322123    0.0    0.17     -45.333251216849     -45.333251216849     -45.333244704720     -45.333244902436   0.0000   0.0000  -0.0008  -0.0498
     25    0.000000060121725    0.0    0.19     -45.333251760702     -45.333251760702     -45.333244650721     -45.333244900603   0.0000   0.0000  -0.0009  -0.0541
     26    0.000000063656675    0.0    0.20     -45.333252325455     -45.333252325455     -45.333244585160     -45.333244898453   0.0000   0.0000  -0.0009  -0.0586
     27    0.000000065286949    0.0    0.22     -45.333252912978     -45.333252912978     -45.333244509157     -45.333244896496   0.0000   0.0000  -0.0010  -0.0633
     28    0.000000065692479    0.0    0.24     -45.333253523486     -45.333253523486     -45.333244422426     -45.333244894554   0.0000   0.0000  -0.0010  -0.0681
     29    0.000000065385672    0.0    0.26     -45.333254156650     -45.333254156650     -45.333244324243     -45.333244892219   0.0000   0.0000  -0.0010  -0.0732
     30    0.000000066359802    0.0    0.28     -45.333254814284     -45.333254814284     -45.333244216001     -45.333244889760   0.0000   0.0000  -0.0011  -0.0784
     31    0.000000070456162    0.0    0.30     -45.333255498361     -45.333255498361     -45.333244099180     -45.333244887728   0.0000   0.0000  -0.0011  -0.0838
     32    0.000000076586444    0.0    0.32     -45.333256207178     -45.333256207178     -45.333243971532     -45.333244885914   0.0000   0.0000  -0.0011  -0.0894
     33    0.000000082086187    0.0    0.34     -45.333256936887     -45.333256936887     -45.333243828644     -45.333244883567   0.0000   0.0000  -0.0012  -0.0952
     34    0.000000086825261    0.0    0.37     -45.333257686822     -45.333257686822     -45.333243669238     -45.333244880582   0.0000   0.0000  -0.0012  -0.1011
     35    0.000000093711411    0.0    0.39     -45.333258460265     -45.333258460265     -45.333243495801     -45.333244877627   0.0000   0.0000  -0.0012  -0.1072
     36    0.000000104843862    0.0    0.42     -45.333259259694     -45.333259259694     -45.333243309628     -45.333244875037   0.0000   0.0000  -0.0013  -0.1135
     37    0.000000119281638    0.0    0.45     -45.333260084314     -45.333260084314     -45.333243108154     -45.333244872390   0.0000   0.0000  -0.0013  -0.1200
     38    0.000000135012609    0.0    0.47     -45.333260932909     -45.333260932909     -45.333242887783     -45.333244869369   0.0000   0.0000  -0.0013  -0.1266
     39    0.000000150786064    0.0    0.50     -45.333261806040     -45.333261806040     -45.333242646251     -45.333244866311   0.0000   0.0000  -0.0014  -0.1335
     40    0.000000165018068    0.0    0.53     -45.333262703810     -45.333262703810     -45.333242380784     -45.333244863457   0.0000   0.0000  -0.0014  -0.1405
     41    0.000000175252790    0.0    0.57     -45.333263624322     -45.333263624322     -45.333242086997     -45.333244860404   0.0000   0.0000  -0.0015  -0.1477
     42    0.000000180735727    0.0    0.60     -45.333264566610     -45.333264566610     -45.333241762172     -45.333244856793   0.0000   0.0000  -0.0015  -0.1550
     43    0.000000184260315    0.0    0.63     -45.333265533139     -45.333265533139     -45.333241407833     -45.333244853033   0.0000   0.0000  -0.0015  -0.1626
     44    0.000000189608063    0.0    0.67     -45.333266526883     -45.333266526883     -45.333241026586     -45.333244849694   0.0000   0.0000  -0.0016  -0.1703
     45    0.000000197930697    0.0    0.71     -45.333267547244     -45.333267547244     -45.333240617585     -45.333244846586   0.0000   0.0000  -0.0016  -0.1782
     46    0.000000208161228    0.0    0.75     -45.333268591298     -45.333268591298     -45.333240177281     -45.333244843094   0.0000   0.0000  -0.0016  -0.1863
     47    0.000000219972229    0.0    0.79     -45.333269658056     -45.333269658056     -45.333239703337     -45.333244839150   0.0000   0.0000  -0.0017  -0.1945
     48    0.000000234249080    0.0    0.83     -45.333270748945     -45.333270748945     -45.333239195048     -45.333244835192   0.0000   0.0000  -0.0017  -0.2029
     49    0.000000251092575    0.0    0.87     -45.333271864779     -45.333271864779     -45.333238650478     -45.333244831313   0.0000   0.0000  -0.0017  -0.2115
     50    0.000000269545196    0.0    0.92     -45.333273005086     -45.333273005086     -45.333238066079     -45.333244827164   0.0000   0.0000  -0.0018  -0.2203
     51    0.000000289419413    0.0    0.97     -45.333274170483     -45.333274170483     -45.333237439283     -45.333244822726   0.0000   0.0000  -0.0018  -0.2293
     52    0.000000311339918    0.0    1.02     -45.333275362790     -45.333275362790     -45.333236768666     -45.333244818436   0.0000   0.0000  -0.0018  -0.2384
     53    0.000000334377950    0.0    1.07     -45.333276581985     -45.333276581985     -45.333236050797     -45.333244814411   0.0000   0.0000  -0.0019  -0.2477
     54    0.000000355444745    0.0    1.12     -45.333277825423     -45.333277825423     -45.333235279331     -45.333244810154   0.0000   0.0000  -0.0019  -0.2572
     55    0.000000372049255    0.0    1.17     -45.333279091333     -45.333279091333     -45.333234448527     -45.333244805327   0.0000   0.0000  -0.0019  -0.2669
     56    0.000000384442055    0.0    1.23     -45.333280381224     -45.333280381224     -45.333233555904     -45.333244800266   0.0000   0.0000  -0.0020  -0.2767
     57    0.000000394278148    0.0    1.29     -45.333281697524     -45.333281697524     -45.333232600318     -45.333244795402   0.0000   0.0000  -0.0020  -0.2867
     58    0.000000402618141    0.0    1.35     -45.333283040540     -45.333283040540     -45.333231579329     -45.333244790611   0.0000   0.0000  -0.0021  -0.2969
     59    0.000000410494209    0.0    1.42     -45.333284409249     -45.333284409249     -45.333230490127     -45.333244785572   0.0000   0.0000  -0.0021  -0.3073
     60    0.000000818717251    0.0    1.48     -45.333278549473     -45.333278549473     -45.333222144789     -45.333237194472   0.0000   0.0000  -0.0021  -0.3178
     61    0.000002121165432    0.0    1.55     -45.333281245077     -45.333281245077     -45.333222320134     -45.333237302609   0.0000   0.0000  -0.0022  -0.3285
     62    0.000003866058080    0.0    1.62     -45.333284448386     -45.333284448386     -45.333222893069     -45.333237441955   0.0000   0.0000  -0.0022  -0.3394
     63    0.000005029781929    0.0    1.69     -45.333287044948     -45.333287044948     -45.333222743247     -45.333237520025   0.0000   0.0000  -0.0022  -0.3505
     64    0.000005018943815    0.0    1.77     -45.333288398830     -45.333288398830     -45.333221225642     -45.333237489715   0.0000   0.0000  -0.0023  -0.3617
     65    0.000004001941203    0.0    1.85     -45.333288704132     -45.333288704132     -45.333218529598     -45.333237376771   0.0000   0.0000  -0.0023  -0.3731
     66    0.000002739336154    0.0    1.93     -45.333288791329     -45.333288791329     -45.333215482822     -45.333237253351   0.0000   0.0000  -0.0023  -0.3847
     67    0.000002070311626    0.0    2.02     -45.333289571332     -45.333289571332     -45.333212994585     -45.333237194737   0.0000   0.0000  -0.0024  -0.3964
     68    0.000002377359699    0.0    2.10     -45.333291455890     -45.333291455890     -45.333211475348     -45.333237234248   0.0000   0.0000  -0.0024  -0.4083
     69    0.000003359523073    0.0    2.20     -45.333294105037     -45.333294105037     -45.333210583721     -45.333237336968   0.0000   0.0000  -0.0024  -0.4204
     70    0.000004661149541    0.0    2.29     -45.333290996298     -45.333290996298     -45.333203844769     -45.333231388688   0.0000   0.0000  -0.0025  -0.4327
     71    0.000006159661152    0.0    2.39     -45.333294119439     -45.333294119439     -45.333203244669     -45.333231502800   0.0000   0.0000  -0.0025  -0.4451
     72    0.000007367426681    0.0    2.49     -45.333296924655     -45.333296924655     -45.333202180615     -45.333231569565   0.0000   0.0000  -0.0025  -0.4577
     73    0.000007751103622    0.0    2.60     -45.333298844805     -45.333298844805     -45.333200082051     -45.333231558031   0.0000   0.0000  -0.0026  -0.4705
     74    0.000007328247508    0.0    2.71     -45.333299916149     -45.333299916149     -45.333196979892     -45.333231488063   0.0000   0.0000  -0.0026  -0.4834
     75    0.000006543703612    0.0    2.82     -45.333300628792     -45.333300628792     -45.333193358325     -45.333231405801   0.0000   0.0000  -0.0026  -0.4965
     76    0.000005941931900    0.0    2.94     -45.333301571812     -45.333301571812     -45.333189798085     -45.333231354646   0.0000   0.0000  -0.0027  -0.5098
     77    0.000005846764030    0.0    3.06     -45.333303094925     -45.333303094925     -45.333186637664     -45.333231356795   0.0000   0.0000  -0.0027  -0.5232
     78    0.000006204772320    0.0    3.19     -45.333305137971     -45.333305137971     -45.333183803462     -45.333231400106   0.0000   0.0000  -0.0027  -0.5368
     79    0.000006678143767    0.0    3.33     -45.333307326436     -45.333307326436     -45.333180906911     -45.333231442396   0.0000   0.0000  -0.0028  -0.5506
     80    0.000007303250091    0.0    3.46     -45.333304265728     -45.333304265728     -45.333172601890     -45.333226109437   0.0000   0.0000  -0.0028  -0.5645
     81    0.000008498642224    0.0    3.61     -45.333307163765     -45.333307163765     -45.333170083480     -45.333226185685   0.0000   0.0000  -0.0028  -0.5786
     82    0.000010461897636    0.0    3.75     -45.333302192117     -45.333302192117     -45.333159679857     -45.333217807736   0.0000   0.0000  -0.0029  -0.5929
     83    0.000013304588996    0.0    3.89     -45.333300527324     -45.333300527324     -45.333152640695     -45.333212116454   0.0000   0.0000  -0.0029  -0.6073
     84    0.000016506798526    0.0    4.04     -45.333305142735     -45.333305142735     -45.333151694720     -45.333212365734   0.0000   0.0000  -0.0029  -0.6219
     85    0.000018604743696    0.0    4.19     -45.333308617126     -45.333308617126     -45.333149325596     -45.333212513307   0.0000   0.0000  -0.0030  -0.6367
     86    0.000018527778465    0.0    4.35     -45.333309785430     -45.333309785430     -45.333144355827     -45.333212464402   0.0000   0.0000  -0.0030  -0.6516
     87    0.000016593067932    0.0    4.52     -45.333308995828     -45.333308995828     -45.333137133006     -45.333212261964   0.0000   0.0000  -0.0030  -0.6666
     88    0.000014215803060    0.0    4.70     -45.333307778644     -45.333307778644     -45.333129194172     -45.333212040507   0.0000   0.0000  -0.0031  -0.6819
     89    0.000013386941960    0.0    4.88     -45.333302638153     -45.333302638153     -45.333117202048     -45.333206482146   0.0000   0.0000  -0.0031  -0.6973
     90    0.000015343063593    0.0    5.06     -45.333305891316     -45.333305891316     -45.333113467538     -45.333206669360   0.0000   0.0000  -0.0031  -0.7128
     91    0.000019085766097    0.0    5.26     -45.333311100062     -45.333311100062     -45.333111389053     -45.333207009880   0.0000   0.0000  -0.0032  -0.7285
     92    0.000022194992815    0.0    5.46     -45.333315609983     -45.333315609983     -45.333108303135     -45.333207274103   0.0000   0.0000  -0.0032  -0.7444
     93    0.000022802075026    0.0    5.66     -45.333317371365     -45.333317371365     -45.333102147088     -45.333207282386   0.0000   0.0000  -0.0032  -0.7604
     94    0.000020809841315    0.0    5.88     -45.333316281276     -45.333316281276     -45.333092816758     -45.333207042597   0.0000   0.0000  -0.0033  -0.7766
     95    0.000017844616124    0.0    6.11     -45.333314127700     -45.333314127700     -45.333082102016     -45.333206733356   0.0000   0.0000  -0.0033  -0.7930
     96    0.000016028695320    0.0    6.34     -45.333313233533     -45.333313233533     -45.333072322736     -45.333206567566   0.0000   0.0000  -0.0033  -0.8094
     97    0.000016911940111    0.0    6.58     -45.333311422826     -45.333311422826     -45.333061447753     -45.333202977377   0.0000   0.0000  -0.0033  -0.8261
     98    0.000020839456331    0.0    6.82     -45.333312124212     -45.333312124212     -45.333053013421     -45.333199163141   0.0000   0.0000  -0.0034  -0.8429
     99    0.000026151076396    0.0    7.07     -45.333318392956     -45.333318392956     -45.333049863361     -45.333199639584   0.0000   0.0000  -0.0034  -0.8598

 * Physical Quantities at step:   100

   from rhoofr: total integrated electronic density
   in g-space =     32.000000   in r-space =    32.000000


                total energy =      -45.33332286603 Hartree a.u.
              kinetic energy =       12.47656 Hartree a.u.
        electrostatic energy =      -41.31440 Hartree a.u.
                         esr =        0.00000 Hartree a.u.
                       eself =      102.12922 Hartree a.u.
      pseudopotential energy =        3.12724 Hartree a.u.
  n-l pseudopotential energy =        4.92048 Hartree a.u.
 exchange-correlation energy =      -24.54320 Hartree a.u.
           average potential =        0.00000 Hartree a.u.



   Eigenvalues (eV), kp =   1 , spin =  1

   -6.44   -2.67   -2.66   -2.66   -2.65   -2.65   -2.65    2.22    2.22    2.22
    2.23    2.23    2.23    4.86    4.86    4.86
 
 
   CELL_PARAMETERS
   10.64076206    0.00000000    0.00000000
    0.00000000   10.64076206    0.00000000
    0.00000000    0.00000000   10.64076206

   System Density [g/cm^3] :              2.0898178971


   System Volume [A.U.^3] :           1204.8089816234


   Center of mass square displacement (a.u.):   0.000000

   ATOMIC_POSITIONS
   Si      0.72582485961360E-02     0.20384189086365E-02     0.36544804817210E-02
   Si      0.21041542524605E-02     0.53214450270224E+01     0.53091437602211E+01
   Si      0.53201483509204E+01     0.53198847919680E+01    -0.12444108898439E-01
   Si      0.53235780616942E+01    -0.11908977410469E-02     0.53190751185534E+01
   Si      0.26698049348761E+01     0.26615074444532E+01     0.26580558535348E+01
   Si      0.26539594958766E+01     0.79796095840453E+01     0.79720746387207E+01
   Si      0.79809375199509E+01     0.79786418124960E+01     0.26567935287395E+01
   Si      0.79934972272897E+01     0.26635684293696E+01     0.79746576869852E+01
 
   ATOMIC_VELOCITIES
   Si     -0.31538895294941E-04    -0.23808014159421E-04    -0.23434310526176E-04
   Si      0.12971804619764E-04     0.69876883229259E-05     0.55182671286990E-05
   Si     -0.20251834104904E-04     0.24562124299955E-04     0.78496161866658E-05
   Si     -0.15907968510000E-04    -0.14642586520199E-04     0.27142281861967E-04
   Si      0.21246575953756E-05     0.24330167201567E-04     0.86219422517590E-05
   Si      0.34787800375998E-04    -0.97336638003556E-05     0.73814752494963E-05
   Si      0.24425975332984E-04     0.23916892760274E-04    -0.43464589146382E-04
   Si     -0.66115400144278E-05    -0.31612608104693E-04     0.10385316994755E-04
 


   Partial temperatures (for each ionic specie) 
   Species  Temp (K)   Mean Square Displacement (a.u.)
        1   7.33E+00     5.4888E-05
 
  nfi     ekinc              temph  tempp     etot                 enthal               econs                econt              vnhh    xnhh0   vnhp    xnhp0
    100    0.000029806538264    0.0    7.33     -45.333322866035     -45.333322866035     -45.333044447135     -45.333199914365   0.0000   0.0000  -0.0034  -0.8769

   writing restart file (with schema): ./outdir/si_52.save/
     restart      :      0.03s CPU      0.04s WALL (       1 calls)
    101    0.000029804773477    0.0    7.60     -45.333323395663     -45.333323395663     -45.333034581680     -45.333199827388   0.0000   0.0000  -0.0035  -0.8941
    102    0.000026702081424    0.0    7.89     -45.333320624782     -45.333320624782     -45.333020893724     -45.333199472201   0.0000   0.0000  -0.0035  -0.9115
    103    0.000022968047133    0.0    8.19     -45.333317255818     -45.333317255818     -45.333006094922     -45.333199114447   0.0000   0.0000  -0.0035  -0.9290
    104    0.000021574549896    0.0    8.50     -45.333310672211     -45.333310672211     -45.332987777232     -45.333193394241   0.0000   0.0000  -0.0035  -0.9467
    105    0.000023913242898    0.0    8.81     -45.333313620073     -45.333313620073     -45.332978687874     -45.333193683700   0.0000   0.0000  -0.0036  -0.9645
    106    0.000028315730532    0.0    9.14     -45.333318788301     -45.333318788301     -45.332971303409     -45.333194148273   0.0000   0.0000  -0.0036  -0.9825
    107    0.000031538378177    0.0    9.49     -45.333322607092     -45.333322607092     -45.332962019605     -45.333194452504   0.0000   0.0000  -0.0036  -1.0006
    108    0.000031445259818    0.0    9.85     -45.333322751049     -45.333322751049     -45.332948463113     -45.333194385895   0.0000   0.0000  -0.0037  -1.0188
    109    0.000028896228394    0.0   10.22     -45.333312615277     -45.333312615277     -45.332924231169     -45.333186710202   0.0000   0.0000  -0.0037  -1.0371
    110    0.000026875922055    0.0   10.60     -45.333310209598     -45.333310209598     -45.332907311260     -45.333186449567   0.0000   0.0000  -0.0037  -1.0556
    111    0.000027490536924    0.0   11.00     -45.333310732427     -45.333310732427     -45.332892661657     -45.333186482407   0.0000   0.0000  -0.0037  -1.0743
    112    0.000030495992417    0.0   11.42     -45.333313892826     -45.333313892826     -45.332879994473     -45.333186795898   0.0000   0.0000  -0.0038  -1.0930
    113    0.000033757909772    0.0   11.85     -45.333317309134     -45.333317309134     -45.332866912029     -45.333187158247   0.0000   0.0000  -0.0038  -1.1119
    114    0.000035260924636    0.0   12.30     -45.333311579526     -45.333311579526     -45.332844214525     -45.333180413233   0.0000   0.0000  -0.0038  -1.1310
    115    0.000034958933966    0.0   12.75     -45.333306136789     -45.333306136789     -45.332821526197     -45.333176252062   0.0000   0.0000  -0.0038  -1.1501
    116    0.000034095016209    0.0   13.22     -45.333303928305     -45.333303928305     -45.332801508448     -45.333176115818   0.0000   0.0000  -0.0039  -1.1694
    117    0.000033833217760    0.0   13.71     -45.333302392210     -45.333302392210     -45.332781310842     -45.333176023941   0.0000   0.0000  -0.0039  -1.1887
    118    0.000035239670288    0.0   14.22     -45.333295444233     -45.333295444233     -45.332755137399     -45.333169148389   0.0000   0.0000  -0.0039  -1.2083
    119    0.000038517719776    0.0   14.74     -45.333297230872     -45.333297230872     -45.332737112229     -45.333169438974   0.0000   0.0000  -0.0039  -1.2279
    120    0.000042058436916    0.0   15.28     -45.333299282309     -45.333299282309     -45.332718445518     -45.333169750688   0.0000   0.0000  -0.0040  -1.2476
    121    0.000043757792671    0.0   15.85     -45.333299228539     -45.333299228539     -45.332696784822     -45.333169877072   0.0000   0.0000  -0.0040  -1.2675
    122    0.000042810007400    0.0   16.45     -45.333296160212     -45.333296160212     -45.332671206849     -45.333169742659   0.0000   0.0000  -0.0040  -1.2874
    123    0.000040195820061    0.0   17.06     -45.333291159291     -45.333291159291     -45.332642762707     -45.333169460869   0.0000   0.0000  -0.0040  -1.3075
    124    0.000038349013206    0.0   17.70     -45.333282260484     -45.333282260484     -45.332609707190     -45.333164892012   0.0000   0.0000  -0.0040  -1.3276
    125    0.000039423218986    0.0   18.35     -45.333280588541     -45.333280588541     -45.332583094060     -45.333164972501   0.0000   0.0000  -0.0041  -1.3479
    126    0.000043202739683    0.0   19.04     -45.333281841388     -45.333281841388     -45.332558271708     -45.333165311186   0.0000   0.0000  -0.0041  -1.3683
    127    0.000047843076834    0.0   19.75     -45.333277641589     -45.333277641589     -45.332527242997     -45.333159799434   0.0000   0.0000  -0.0041  -1.3887
    128    0.000051267530883    0.0   20.47     -45.333277547328     -45.333277547328     -45.332499549676     -45.333160092149   0.0000   0.0000  -0.0041  -1.4093
    129    0.000051876279641    0.0   21.23     -45.333274221965     -45.333274221965     -45.332467443791     -45.333160086250   0.0000   0.0000  -0.0041  -1.4299
    130    0.000049797674329    0.0   22.02     -45.333267765074     -45.333267765074     -45.332431042189     -45.333159823165   0.0000   0.0000  -0.0042  -1.4506
    131    0.000047336007316    0.0   22.83     -45.333256484269     -45.333256484269     -45.332388816534     -45.333155519172   0.0000   0.0000  -0.0042  -1.4715
    132    0.000047225014844    0.0   23.67     -45.333251450757     -45.333251450757     -45.332351786756     -45.333155506697   0.0000   0.0000  -0.0042  -1.4923
    133    0.000050048642138    0.0   24.55     -45.333249454441     -45.333249454441     -45.332316471096     -45.333155772595   0.0000   0.0000  -0.0042  -1.5133
    134    0.000054557508661    0.0   25.45     -45.333242582521     -45.333242582521     -45.332275293274     -45.333150040622   0.0000   0.0000  -0.0042  -1.5343
    135    0.000059397308854    0.0   26.38     -45.333237641830     -45.333237641830     -45.332235074143     -45.333146528662   0.0000   0.0000  -0.0042  -1.5554
    136    0.000063115883681    0.0   27.35     -45.333235170643     -45.333235170643     -45.332195838849     -45.333146766615   0.0000   0.0000  -0.0042  -1.5766
    137    0.000064416745664    0.0   28.36     -45.333229990636     -45.333229990636     -45.332152257017     -45.333146786459   0.0000   0.0000  -0.0042  -1.5978
    138    0.000063334914864    0.0   29.41     -45.333222101671     -45.333222101671     -45.332104314781     -45.333146607816   0.0000   0.0000  -0.0043  -1.6190
    139    0.000061304526872    0.0   30.51     -45.333213040543     -45.333213040543     -45.332053553631     -45.333146405738   0.0000   0.0000  -0.0043  -1.6403
    140    0.000059944673585    0.0   31.65     -45.333204543688     -45.333204543688     -45.332001695270     -45.333146349595   0.0000   0.0000  -0.0043  -1.6617
    141    0.000059907931044    0.0   32.84     -45.333197273338     -45.333197273338     -45.331949340773     -45.333146454943   0.0000   0.0000  -0.0043  -1.6831
    142    0.000060719699590    0.0   34.07     -45.333190678858     -45.333190678858     -45.331895836109     -45.333146611432   0.0000   0.0000  -0.0043  -1.7045
    143    0.000061486826584    0.0   35.36     -45.333183806964     -45.333183806964     -45.331840113106     -45.333146716095   0.0000   0.0000  -0.0043  -1.7260
    144    0.000061655434860    0.0   36.70     -45.333176087723     -45.333176087723     -45.331781516944     -45.333146742404   0.0000   0.0000  -0.0043  -1.7474
    145    0.000061286904692    0.0   38.09     -45.333167557969     -45.333167557969     -45.331720059256     -45.333146715219   0.0000   0.0000  -0.0043  -1.7689
    146    0.000060891827438    0.0   39.54     -45.333158670322     -45.333158670322     -45.331656227339     -45.333146683231   0.0000   0.0000  -0.0043  -1.7904
    147    0.000061012490366    0.0   41.03     -45.333149900400     -45.333149900400     -45.331590559069     -45.333146709267   0.0000   0.0000  -0.0043  -1.8119
    148    0.000061740500627    0.0   42.58     -45.333141267015     -45.333141267015     -45.331523112484     -45.333146821918   0.0000   0.0000  -0.0043  -1.8334
    149    0.000062537871165    0.0   44.18     -45.333132138247     -45.333132138247     -45.331453227614     -45.333146957969   0.0000   0.0000  -0.0043  -1.8549
    150    0.000062673620972    0.0   45.83     -45.333121721165     -45.333121721165     -45.331380001063     -45.333147003317   0.0000   0.0000  -0.0043  -1.8763
    151    0.000061970464956    0.0   47.54     -45.333109910525     -45.333109910525     -45.331303157642     -45.333146920611   0.0000   0.0000  -0.0043  -1.8978
    152    0.000061076146253    0.0   49.32     -45.333097562295     -45.333097562295     -45.331223375095     -45.333146803682   0.0000   0.0000  -0.0043  -1.9192
    153    0.000060919813667    0.0   51.16     -45.333085799147     -45.333085799147     -45.331141644755     -45.333146780530   0.0000   0.0000  -0.0043  -1.9405
    154    0.000061907803599    0.0   53.07     -45.333075053690     -45.333075053690     -45.331058347160     -45.333146889958   0.0000   0.0000  -0.0043  -1.9618
    155    0.000063615139962    0.0   55.05     -45.333064760051     -45.333064760051     -45.330972937448     -45.333147071763   0.0000   0.0000  -0.0042  -1.9831
    156    0.000065566640250    0.0   57.08     -45.333049589621     -45.333049589621     -45.330880407433     -45.333142839377   0.0000   0.0000  -0.0042  -2.0043
    157    0.000067394129902    0.0   59.18     -45.333037954208     -45.333037954208     -45.330789193364     -45.333143030139   0.0000   0.0000  -0.0042  -2.0254
    158    0.000068336075953    0.0   61.34     -45.333024841809     -45.333024841809     -45.330693975048     -45.333143117690   0.0000   0.0000  -0.0042  -2.0464
    159    0.000068002826894    0.0   63.57     -45.333009878252     -45.333009878252     -45.330594281550     -45.333143054285   0.0000   0.0000  -0.0042  -2.0673
    160    0.000067042803623    0.0   65.87     -45.332993883553     -45.332993883553     -45.330490808943     -45.333142917804   0.0000   0.0000  -0.0042  -2.0881
    161    0.000066633242798    0.0   68.24     -45.332978236313     -45.332978236313     -45.330384867022     -45.333142866454   0.0000   0.0000  -0.0041  -2.1088
    162    0.000067491003873    0.0   70.69     -45.332963686557     -45.332963686557     -45.330277232668     -45.333142977514   0.0000   0.0000  -0.0041  -2.1294
    163    0.000069337322354    0.0   73.21     -45.332949759655     -45.332949759655     -45.330167562290     -45.333143190347   0.0000   0.0000  -0.0041  -2.1498
    164    0.000071208908901    0.0   75.80     -45.332935188759     -45.332935188759     -45.330054788777     -45.333143388310   0.0000   0.0000  -0.0040  -2.1701
    165    0.000072185676380    0.0   78.44     -45.332918797350     -45.332918797350     -45.329937940590     -45.333143488363   0.0000   0.0000  -0.0040  -2.1902
    166    0.000071970653807    0.0   81.14     -45.332900157949     -45.332900157949     -45.329816739847     -45.333143460074   0.0000   0.0000  -0.0040  -2.2102
    167    0.000071106041781    0.0   83.89     -45.332879838682     -45.332879838682     -45.329691820944     -45.333143330757   0.0000   0.0000  -0.0039  -2.2299
    168    0.000070750813220    0.0   86.70     -45.332859178113     -45.332859178113     -45.329564523752     -45.333143203650   0.0000   0.0000  -0.0039  -2.2495
    169    0.000071981263943    0.0   89.56     -45.332839485352     -45.332839485352     -45.329436148596     -45.333143213360   0.0000   0.0000  -0.0038  -2.2688
    170    0.000074964606354    0.0   92.47     -45.332821031066     -45.332821031066     -45.329307010147     -45.333143404813   0.0000   0.0000  -0.0038  -2.2880
    171    0.000078730055346    0.0   95.43     -45.332802722065     -45.332802722065     -45.329176149985     -45.333143671576   0.0000   0.0000  -0.0038  -2.3069
    172    0.000081860793072    0.0   98.44     -45.332782898778     -45.332782898778     -45.329042126928     -45.333143850736   0.0000   0.0000  -0.0037  -2.3255
    173    0.000083519194742    0.0  101.48     -45.332760557104     -45.332760557104     -45.328904190029     -45.333143868550   0.0000   0.0000  -0.0036  -2.3439
    174    0.000083922335453    0.0  104.55     -45.332735921439     -45.332735921439     -45.328762787071     -45.333143773631   0.0000   0.0000  -0.0036  -2.3620
    175    0.000084029251873    0.0  107.65     -45.332710099408     -45.332710099408     -45.328619174649     -45.333143661980   0.0000   0.0000  -0.0035  -2.3798
    176    0.000084872771439    0.0  110.78     -45.332684347676     -45.332684347676     -45.328474685987     -45.333143615800   0.0000   0.0000  -0.0035  -2.3973
    177    0.000086975846368    0.0  113.92     -45.332659420195     -45.332659420195     -45.328330131291     -45.333143689184   0.0000   0.0000  -0.0034  -2.4145
    178    0.000090039113224    0.0  117.09     -45.332635149189     -45.332635149189     -45.328185458163     -45.333143880283   0.0000   0.0000  -0.0033  -2.4313
    179    0.000093590460786    0.0  120.27     -45.332607642404     -45.332607642404     -45.328037336613     -45.333141058587   0.0000   0.0000  -0.0033  -2.4478
    180    0.000097057741228    0.0  123.43     -45.332582318697     -45.332582318697     -45.327891569051     -45.333141299133   0.0000   0.0000  -0.0032  -2.4640
    181    0.000099505664291    0.0  126.60     -45.332555219031     -45.332555219031     -45.327744370108     -45.333141433303   0.0000   0.0000  -0.0031  -2.4798
    182    0.000100468284059    0.0  129.73     -45.332525670769     -45.332525670769     -45.327595605488     -45.333141453996   0.0000   0.0000  -0.0030  -2.4951
    183    0.000100261256632    0.0  132.83     -45.332493912855     -45.332493912855     -45.327446004395     -45.333141412867   0.0000   0.0000  -0.0030  -2.5101
    184    0.000099599091940    0.0  135.89     -45.332460679576     -45.332460679576     -45.327296717144     -45.333141364977   0.0000   0.0000  -0.0029  -2.5247
    185    0.000099188230250    0.0  138.89     -45.332426768816     -45.332426768816     -45.327148878746     -45.333141343884   0.0000   0.0000  -0.0028  -2.5388
    186    0.000099476222869    0.0  141.82     -45.332392759371     -45.332392759371     -45.327003374482     -45.333141381776   0.0000   0.0000  -0.0027  -2.5524
    187    0.000100495072785    0.0  144.68     -45.332358763399     -45.332358763399     -45.326860658851     -45.333141487150   0.0000   0.0000  -0.0026  -2.5657
    188    0.000101891823179    0.0  147.46     -45.332324375324     -45.332324375324     -45.326720750646     -45.333141610106   0.0000   0.0000  -0.0025  -2.5784
    189    0.000103260252435    0.0  150.14     -45.332289044870     -45.332289044870     -45.326583603957     -45.333141682414   0.0000   0.0000  -0.0024  -2.5907
    190    0.000104887796606    0.0  152.69     -45.332249102784     -45.332249102784     -45.326446566808     -45.333138325679   0.0000   0.0000  -0.0023  -2.6024
    191    0.000107444909468    0.0  155.11     -45.332212105162     -45.332212105162     -45.326317670282     -45.333138456535   0.0000   0.0000  -0.0022  -2.6137
    192    0.000110569516578    0.0  157.39     -45.332174838632     -45.332174838632     -45.326193562675     -45.333138653508   0.0000   0.0000  -0.0021  -2.6244
    193    0.000113000763813    0.0  159.54     -45.332136105265     -45.332136105265     -45.326073282751     -45.333138800817   0.0000   0.0000  -0.0020  -2.6346
    194    0.000113812962938    0.0  161.54     -45.332095116029     -45.332095116029     -45.325956212679     -45.333138805868   0.0000   0.0000  -0.0019  -2.6443
    195    0.000113080870146    0.0  163.40     -45.332052150606     -45.332052150606     -45.325842841037     -45.333138699424   0.0000   0.0000  -0.0018  -2.6534
    196    0.000111778097507    0.0  165.09     -45.332008339477     -45.332008339477     -45.325734610354     -45.333138585677   0.0000   0.0000  -0.0017  -2.6619
    197    0.000111102773617    0.0  166.62     -45.331964878552     -45.331964878552     -45.325633154620     -45.333138554853   0.0000   0.0000  -0.0015  -2.6699
    198    0.000112153928654    0.0  167.95     -45.331911860619     -45.331911860619     -45.325529436835     -45.333128143606   0.0000   0.0000  -0.0014  -2.6774
    199    0.000115316081276    0.0  169.08     -45.331870566547     -45.331870566547     -45.325445259709     -45.333128465538   0.0000   0.0000  -0.0013  -2.6842

 * Physical Quantities at step:   200

   from rhoofr: total integrated electronic density
   in g-space =     32.000000   in r-space =    32.000000


                total energy =      -45.33182911491 Hartree a.u.
              kinetic energy =       12.47714 Hartree a.u.
        electrostatic energy =      -41.31556 Hartree a.u.
                         esr =        0.00000 Hartree a.u.
                       eself =      102.12922 Hartree a.u.
      pseudopotential energy =        3.12798 Hartree a.u.
  n-l pseudopotential energy =        4.92172 Hartree a.u.
 exchange-correlation energy =      -24.54311 Hartree a.u.
           average potential =        0.00000 Hartree a.u.



   Eigenvalues (eV), kp =   1 , spin =  1

   -6.44   -2.79   -2.71   -2.70   -2.63   -2.60   -2.52    2.16    2.20    2.23
    2.24    2.25    2.26    4.78    4.87    4.94
 
 
   CELL_PARAMETERS
   10.64076206    0.00000000    0.00000000
    0.00000000   10.64076206    0.00000000
    0.00000000    0.00000000   10.64076206

   System Density [g/cm^3] :              2.0898178971


   System Volume [A.U.^3] :           1204.8089816234


   Center of mass square displacement (a.u.):   0.000000

   ATOMIC_POSITIONS
   Si     -0.33104577517118E-01    -0.30161508148899E-01    -0.34665857319478E-01
   Si      0.19962660878500E-01     0.53280161333991E+01     0.53188643803059E+01
   Si      0.53021633029862E+01     0.53523206194107E+01     0.74719722210498E-03
   Si      0.53056073737819E+01    -0.16983809517416E-01     0.53524498655156E+01
   Si      0.26670251904894E+01     0.26914231744095E+01     0.26694250097167E+01
   Si      0.27040966695202E+01     0.79703077488102E+01     0.79861116491147E+01
   Si      0.80089594512648E+01     0.80121932166379E+01     0.25959935926995E+01
   Si      0.79765779220525E+01     0.26183890355211E+01     0.79920851210829E+01
 
   ATOMIC_VELOCITIES
   Si     -0.12909018068681E-03    -0.11186045450474E-03    -0.14852795767542E-03
   Si      0.66141889988726E-04     0.22763408428332E-04     0.42281301554300E-04
   Si     -0.47588327790672E-04     0.11535653827696E-03     0.54811582367713E-04
   Si     -0.52478958504447E-04    -0.54066433885936E-04     0.11219762939219E-03
   Si     -0.25619396482623E-04     0.10264591796142E-03     0.38650561896817E-04
   Si      0.17687107620525E-03    -0.32158023743996E-04     0.56366370280322E-04
   Si      0.91890104371017E-04     0.12123783356236E-03    -0.22083196156751E-03
   Si     -0.80126207099826E-04    -0.16391878609442E-03     0.65052473751895E-04
 


   Partial temperatures (for each ionic specie) 
   Species  Temp (K)   Mean Square Displacement (a.u.)
        1   1.70E+02     3.2676E-03
 
  nfi     ekinc              temph  tempp     etot                 enthal               econs                econt              vnhh    xnhh0   vnhp    xnhp0
    200    0.000119195172283    0.0  170.00     -45.331829114907     -45.331829114907     -45.325368816890     -45.333128836334   0.0000   0.0000  -0.0012  -2.6905

   writing restart file (with schema): ./outdir/si_52.save/
     restart      :      0.05s CPU      0.07s WALL (       2 calls)
    201    0.000121521949897    0.0  170.71     -45.331784971830     -45.331784971830     -45.325297846678     -45.333129027983   0.0000   0.0000  -0.0011  -2.6961
    202    0.000121159015358    0.0  171.19     -45.331736961947     -45.331736961947     -45.325231293773     -45.333128925044   0.0000   0.0000  -0.0010  -2.7012
    203    0.000118898097787    0.0  171.46     -45.331686119647     -45.331686119647     -45.325170208424     -45.333128629315   0.0000   0.0000  -0.0008  -2.7057
    204    0.000116831217414    0.0  171.52     -45.331634914279     -45.331634914279     -45.325117032032     -45.333128375576   0.0000   0.0000  -0.0007  -2.7096
    205    0.000116805352611    0.0  171.35     -45.331585470770     -45.331585470770     -45.325073864530     -45.333128344581   0.0000   0.0000  -0.0006  -2.7129
    206    0.000119165896721    0.0  170.97     -45.331538187092     -45.331538187092     -45.325041090369     -45.333128545428   0.0000   0.0000  -0.0005  -2.7157
    207    0.000123003260493    0.0  170.36     -45.331483616229     -45.331483616229     -45.325009502114     -45.333120691823   0.0000   0.0000  -0.0004  -2.7178
    208    0.000126796492720    0.0  169.54     -45.331436512438     -45.331436512438     -45.324993753812     -45.333121012404   0.0000   0.0000  -0.0002  -2.7193
    209    0.000128655682855    0.0  168.51     -45.331387001465     -45.331387001465     -45.324983499265     -45.333121146992   0.0000   0.0000  -0.0001  -2.7203
    210    0.000127565485325    0.0  167.27     -45.331334135583     -45.331334135583     -45.324977501528     -45.333121010141   0.0000   0.0000  -0.0000  -2.7206
    211    0.000124368554293    0.0  165.85     -45.331279029315     -45.331279029315     -45.324976540442     -45.333120712258   0.0000   0.0000   0.0001  -2.7204
    212    0.000121067715857    0.0  164.24     -45.331224018754     -45.331224018754     -45.324982634985     -45.333120477010   0.0000   0.0000   0.0002  -2.7197
    213    0.000119361907272    0.0  162.45     -45.331170972631     -45.331170972631     -45.324997399933     -45.333120459289   0.0000   0.0000   0.0003  -2.7183
    214    0.000119577380297    0.0  160.50     -45.331120111948     -45.331120111948     -45.325020872818     -45.333120638565   0.0000   0.0000   0.0004  -2.7165
    215    0.000120717000853    0.0  158.38     -45.331070147352     -45.331070147352     -45.325051613826     -45.333120867417   0.0000   0.0000   0.0005  -2.7140
    216    0.000121379548375    0.0  156.09     -45.331019389844     -45.331019389844     -45.325087751149     -45.333120995482   0.0000   0.0000   0.0006  -2.7111
    217    0.000120757714133    0.0  153.65     -45.330966902328     -45.330966902328     -45.325128070478     -45.333120958308   0.0000   0.0000   0.0007  -2.7076
    218    0.000119078673753    0.0  151.06     -45.330912995810     -45.330912995810     -45.325172482121     -45.333120800417   0.0000   0.0000   0.0008  -2.7036
    219    0.000117299673094    0.0  148.34     -45.330858880662     -45.330858880662     -45.325221689400     -45.333120643863   0.0000   0.0000   0.0009  -2.6991
    220    0.000116301837906    0.0  145.50     -45.330805728013     -45.330805728013     -45.325276304101     -45.333120605345   0.0000   0.0000   0.0010  -2.6941
    221    0.000116165768653    0.0  142.57     -45.330753788564     -45.330753788564     -45.325336029951     -45.333120699863   0.0000   0.0000   0.0011  -2.6886
    222    0.000116130800868    0.0  139.54     -45.330702290234     -45.330702290234     -45.325399606031     -45.333120821372   0.0000   0.0000   0.0012  -2.6827
    223    0.000115310219925    0.0  136.43     -45.330650244193     -45.330650244193     -45.325465621775     -45.333120839825   0.0000   0.0000   0.0013  -2.6763
    224    0.000113523928669    0.0  133.26     -45.330597428442     -45.330597428442     -45.325533474672     -45.333120723862   0.0000   0.0000   0.0014  -2.6695
    225    0.000111477068460    0.0  130.02     -45.330544633123     -45.330544633123     -45.325603573937     -45.333120563479   0.0000   0.0000   0.0015  -2.6623
    226    0.000110142522275    0.0  126.74     -45.330492989924     -45.330492989924     -45.325676637819     -45.333120482111   0.0000   0.0000   0.0016  -2.6547
    227    0.000109916272923    0.0  123.42     -45.330443035256     -45.330443035256     -45.325752752244     -45.333120536967   0.0000   0.0000   0.0016  -2.6466
    228    0.000110229256471    0.0  120.08     -45.330394265971     -45.330394265971     -45.325830951669     -45.333120685260   0.0000   0.0000   0.0017  -2.6382
    229    0.000109879382178    0.0  116.73     -45.330345463284     -45.330345463284     -45.325909583830     -45.333120814829   0.0000   0.0000   0.0018  -2.6295
    230    0.000107860282555    0.0  113.37     -45.330295555952     -45.330295555952     -45.325987207421     -45.333120811908   0.0000   0.0000   0.0019  -2.6204
    231    0.000104159604597    0.0  110.02     -45.330244490437     -45.330244490437     -45.326063472248     -45.333120642669   0.0000   0.0000   0.0019  -2.6109
    232    0.000099944520484    0.0  106.68     -45.330193480040     -45.330193480040     -45.326139349270     -45.333120397788   0.0000   0.0000   0.0020  -2.6012
    233    0.000096878285523    0.0  103.36     -45.330144307408     -45.330144307408     -45.326216396047     -45.333120241214   0.0000   0.0000   0.0020  -2.5911
    234    0.000095967743262    0.0  100.06     -45.330098079914     -45.330098079914     -45.326295477674     -45.333120282956   0.0000   0.0000   0.0021  -2.5808
    235    0.000096807072782    0.0   96.80     -45.330054395795     -45.330054395795     -45.326375919709     -45.333120487220   0.0000   0.0000   0.0021  -2.5702
    236    0.000097829154041    0.0   93.57     -45.330011611083     -45.330011611083     -45.326455790029     -45.333120701886   0.0000   0.0000   0.0022  -2.5593
    237    0.000097377210178    0.0   90.39     -45.329967993071     -45.329967993071     -45.326533087165     -45.333120774797   0.0000   0.0000   0.0022  -2.5482
    238    0.000094808197296    0.0   87.26     -45.329922887074     -45.329922887074     -45.326606943313     -45.333120653916   0.0000   0.0000   0.0023  -2.5368
    239    0.000090898809796    0.0   84.18     -45.329877125900     -45.329877125900     -45.326678052331     -45.333120410711   0.0000   0.0000   0.0023  -2.5253
    240    0.000087553248869    0.0   81.16     -45.329824244044     -45.329824244044     -45.326740134471     -45.333112001985   0.0000   0.0000   0.0024  -2.5135
    241    0.000086899114041    0.0   78.18     -45.329782922504     -45.329782922504     -45.326811810074     -45.333112049285   0.0000   0.0000   0.0024  -2.5016
    242    0.000089179616139    0.0   75.27     -45.329745402745     -45.329745402745     -45.326884992368     -45.333112333853   0.0000   0.0000   0.0024  -2.4895
    243    0.000092352775604    0.0   72.42     -45.329709447492     -45.329709447492     -45.326957354928     -45.333112664633   0.0000   0.0000   0.0025  -2.4772
    244    0.000094012539406    0.0   69.64     -45.329672480689     -45.329672480689     -45.327026195196     -45.333112823441   0.0000   0.0000   0.0025  -2.4648
    245    0.000092904424902    0.0   66.92     -45.329633231951     -45.329633231951     -45.327090103686     -45.333112718300   0.0000   0.0000   0.0025  -2.4522
    246    0.000089601250785    0.0   64.28     -45.329592440143     -45.329592440143     -45.327149690784     -45.333112434908   0.0000   0.0000   0.0025  -2.4396
    247    0.000085950357241    0.0   61.71     -45.329552205576     -45.329552205576     -45.327206961831     -45.333112165507   0.0000   0.0000   0.0026  -2.4268
    248    0.000083762901411    0.0   59.23     -45.329514529147     -45.329514529147     -45.327263866274     -45.333112070245   0.0000   0.0000   0.0026  -2.4139
    249    0.000083692270656    0.0   56.81     -45.329480091388     -45.329480091388     -45.327321071253     -45.333112173990   0.0000   0.0000   0.0026  -2.4009
    250    0.000085024018131    0.0   54.48     -45.329448058028     -45.329448058028     -45.327377751752     -45.333112367957   0.0000   0.0000   0.0026  -2.3879
    251    0.000086390944252    0.0   52.22     -45.329416903760     -45.329416903760     -45.327432398759     -45.333112503823   0.0000   0.0000   0.0026  -2.3748
    252    0.000086786838282    0.0   50.04     -45.329385541680     -45.329385541680     -45.327483941247     -45.333112502676   0.0000   0.0000   0.0026  -2.3616
    253    0.000086132332454    0.0   47.93     -45.329353929474     -45.329353929474     -45.327532355512     -45.333112399145   0.0000   0.0000   0.0026  -2.3484
    254    0.000085072766539    0.0   45.90     -45.329322812905     -45.329322812905     -45.327578418337     -45.333112297477   0.0000   0.0000   0.0027  -2.3352
    255    0.000084287222874    0.0   43.95     -45.329292936640     -45.329292936640     -45.327622926073     -45.333112282593   0.0000   0.0000   0.0027  -2.3219
    256    0.000083907721148    0.0   42.06     -45.329264398043     -45.329264398043     -45.327666048396     -45.333112355743   0.0000   0.0000   0.0027  -2.3086
    257    0.000083492575630    0.0   40.24     -45.329236635019     -45.329236635019     -45.327707305817     -45.333112439603   0.0000   0.0000   0.0027  -2.2953
    258    0.000082526636304    0.0   38.49     -45.329209009643     -45.329209009643     -45.327746136907     -45.333112445805   0.0000   0.0000   0.0027  -2.2820
    259    0.000080994558594    0.0   36.81     -45.329181473282     -45.329181473282     -45.327782549051     -45.333112352534   0.0000   0.0000   0.0027  -2.2687
    260    0.000079509713969    0.0   35.19     -45.329154725237     -45.329154725237     -45.327817272071     -45.333112229040   0.0000   0.0000   0.0027  -2.2555
    261    0.000078845080692    0.0   33.64     -45.329129683216     -45.329129683216     -45.327851235507     -45.333112181839   0.0000   0.0000   0.0026  -2.2422
    262    0.000079232383277    0.0   32.15     -45.329106676347     -45.329106676347     -45.327884776596     -45.333112263608   0.0000   0.0000   0.0026  -2.2290
    263    0.000080032604569    0.0   30.73     -45.329085049474     -45.329085049474     -45.327917260217     -45.333112423079   0.0000   0.0000   0.0026  -2.2158
    264    0.000080103907583    0.0   29.37     -45.329063556601     -45.329063556601     -45.327947481519     -45.333112540504   0.0000   0.0000   0.0026  -2.2026
    265    0.000078625883985    0.0   28.07     -45.329041275549     -45.329041275549     -45.327974580046     -45.333112518395   0.0000   0.0000   0.0026  -2.1895
    266    0.000075765807843    0.0   26.83     -45.329018355004     -45.329018355004     -45.327998778473     -45.333112354721   0.0000   0.0000   0.0026  -2.1765
    267    0.000072681588587    0.0   25.65     -45.328996032688     -45.328996032688     -45.328021390139     -45.333112147930   0.0000   0.0000   0.0026  -2.1635
    268    0.000070823626965    0.0   24.52     -45.328975881908     -45.328975881908     -45.328044058489     -45.333112034721   0.0000   0.0000   0.0026  -2.1506
    269    0.000070977021787    0.0   23.45     -45.328958763738     -45.328958763738     -45.328067708694     -45.333112099516   0.0000   0.0000   0.0026  -2.1377
    270    0.000072684298190    0.0   22.43     -45.328944181431     -45.328944181431     -45.328091906855     -45.333112311040   0.0000   0.0000   0.0025  -2.1249
    271    0.000074479591932    0.0   21.46     -45.328930520530     -45.328930520530     -45.328115105913     -45.333112534250   0.0000   0.0000   0.0025  -2.1122
    272    0.000074830078839    0.0   20.54     -45.328916078354     -45.328916078354     -45.328135677207     -45.333112620769   0.0000   0.0000   0.0025  -2.0996
    273    0.000073155731688    0.0   19.66     -45.328900193457     -45.328900193457     -45.328153036053     -45.333112514952   0.0000   0.0000   0.0025  -2.0871
    274    0.000070210665580    0.0   18.83     -45.328883671948     -45.328883671948     -45.328168059966     -45.333112290849   0.0000   0.0000   0.0025  -2.0747
    275    0.000067575089435    0.0   18.04     -45.328868228394     -45.328868228394     -45.328182521996     -45.333112093456   0.0000   0.0000   0.0025  -2.0623
    276    0.000066647383146    0.0   17.30     -45.328855380337     -45.328855380337     -45.328197983225     -45.333112038885   0.0000   0.0000   0.0024  -2.0501
    277    0.000067821273244    0.0   16.60     -45.328845554174     -45.328845554174     -45.328214904235     -45.333112148442   0.0000   0.0000   0.0024  -2.0379
    278    0.000070326568070    0.0   15.93     -45.328837914253     -45.328837914253     -45.328232484877     -45.333112347645   0.0000   0.0000   0.0024  -2.0259
    279    0.000072757582539    0.0   15.31     -45.328830931493     -45.328830931493     -45.328249242889     -45.333112516637   0.0000   0.0000   0.0024  -2.0140
    280    0.000073924913848    0.0   14.72     -45.328823303855     -45.328823303855     -45.328263937859     -45.333112562754   0.0000   0.0000   0.0024  -2.0022
    281    0.000073504990955    0.0   14.17     -45.328814667696     -45.328814667696     -45.328276277243     -45.333112477308   0.0000   0.0000   0.0023  -1.9905
    282    0.000072098232165    0.0   13.65     -45.328805667712     -45.328805667712     -45.328286974539     -45.333112335720   0.0000   0.0000   0.0023  -1.9789
    283    0.000070710291877    0.0   13.16     -45.328797388063     -45.328797388063     -45.328297168210     -45.333112235010   0.0000   0.0000   0.0023  -1.9674
    284    0.000070081488704    0.0   12.71     -45.328790615978     -45.328790615978     -45.328307679041     -45.333112221335   0.0000   0.0000   0.0023  -1.9561
    285    0.000070348159093    0.0   12.28     -45.328785482041     -45.328785482041     -45.328318653598     -45.333112271678   0.0000   0.0000   0.0022  -1.9448
    286    0.000071174266909    0.0   11.89     -45.328781621117     -45.328781621117     -45.328329736384     -45.333112334158   0.0000   0.0000   0.0022  -1.9338
    287    0.000072107345278    0.0   11.53     -45.328778560876     -45.328778560876     -45.328340471978     -45.333112374264   0.0000   0.0000   0.0022  -1.9228
    288    0.000072843086403    0.0   11.19     -45.328775989848     -45.328775989848     -45.328350582057     -45.333112387579   0.0000   0.0000   0.0022  -1.9119
    289    0.000073278163106    0.0   10.89     -45.328773798310     -45.328773798310     -45.328360005950     -45.333112387863   0.0000   0.0000   0.0021  -1.9012
    290    0.000073413971081    0.0   10.61     -45.328771976011     -45.328771976011     -45.328368789098     -45.333112392013   0.0000   0.0000   0.0021  -1.8907
    291    0.000073232900326    0.0   10.36     -45.328770486435     -45.328770486435     -45.328376944398     -45.333112405112   0.0000   0.0000   0.0021  -1.8802
    292    0.000072667278399    0.0   10.13     -45.328769234823     -45.328769234823     -45.328384411046     -45.333112410087   0.0000   0.0000   0.0020  -1.8699
    293    0.000071718836166    0.0    9.92     -45.328768200892     -45.328768200892     -45.328391187208     -45.333112380574   0.0000   0.0000   0.0020  -1.8597
    294    0.000070626412487    0.0    9.74     -45.328767632094     -45.328767632094     -45.328397532632     -45.333112315602   0.0000   0.0000   0.0020  -1.8497
    295    0.000069860779764    0.0    9.58     -45.328768041437     -45.328768041437     -45.328403979953     -45.333112256086   0.0000   0.0000   0.0020  -1.8398
    296    0.000069853426696    0.0    9.44     -45.328769895014     -45.328769895014     -45.328411031890     -45.333112253474   0.0000   0.0000   0.0019  -1.8300
    297    0.000070658195289    0.0    9.33     -45.328773224479     -45.328773224479     -45.328418773351     -45.333112320527   0.0000   0.0000   0.0019  -1.8204
    298    0.000071854198858    0.0    9.23     -45.328777528920     -45.328777528920     -45.328426762004     -45.333112419142   0.0000   0.0000   0.0019  -1.8109
    299    0.000072781017015    0.0    9.15     -45.328782060132     -45.328782060132     -45.328434296539     -45.333112493316   0.0000   0.0000   0.0019  -1.8015

 * Physical Quantities at step:   300

   from rhoofr: total integrated electronic density
   in g-space =     32.000000   in r-space =    32.000000


                total energy =      -45.32878625080 Hartree a.u.
              kinetic energy =       12.47446 Hartree a.u.
        electrostatic energy =      -41.31574 Hartree a.u.
                         esr =        0.00000 Hartree a.u.
                       eself =      102.12922 Hartree a.u.
      pseudopotential energy =        3.12914 Hartree a.u.
  n-l pseudopotential energy =        4.92482 Hartree a.u.
 exchange-correlation energy =      -24.54146 Hartree a.u.
           average potential =        0.00000 Hartree a.u.



   Eigenvalues (eV), kp =   1 , spin =  1

   -6.46   -2.90   -2.79   -2.74   -2.62   -2.55   -2.40    2.09    2.18    2.22
    2.23    2.28    2.29    4.75    4.87    4.95
 
 
   CELL_PARAMETERS
   10.64076206    0.00000000    0.00000000
    0.00000000   10.64076206    0.00000000
    0.00000000    0.00000000   10.64076206

   System Density [g/cm^3] :              2.0898178971


   System Volume [A.U.^3] :           1204.8089816234


   Center of mass square displacement (a.u.):   0.000000

   ATOMIC_POSITIONS
   Si     -0.54856130955802E-01    -0.59378674985442E-01    -0.88371585233996E-01
   Si      0.38736383732597E-01     0.53372644338118E+01     0.53354635473305E+01
   Si      0.52993539030535E+01     0.53841689420468E+01     0.21061228282880E-01
   Si      0.52961581199940E+01    -0.32500987235115E-01     0.53781518218235E+01
   Si      0.26487884743255E+01     0.27180486712752E+01     0.26812459706273E+01
   Si      0.27516355788701E+01     0.79583299946685E+01     0.80056578768699E+01
   Si      0.80307555167516E+01     0.80489150618516E+01     0.25343749605808E+01
   Si      0.79407161476850E+01     0.25706571690888E+01     0.80134271380572E+01
 
   ATOMIC_VELOCITIES
   Si      0.43379410323263E-04     0.69765842763545E-06    -0.55393956372452E-04
   Si      0.20861818702416E-05     0.12621680260673E-04     0.21146346335891E-04
   Si      0.31882513347454E-04     0.47516955954224E-05     0.24031860790861E-04
   Si      0.11341986258411E-04    -0.61958181606483E-05    -0.14959208883973E-04
   Si     -0.36892165637226E-04     0.34568672244576E-06     0.66415715167005E-05
   Si      0.61780981482498E-05    -0.14389297089090E-04     0.16697380412940E-04
   Si     -0.40616082518635E-05     0.18875527171321E-04    -0.13833170042847E-04
   Si     -0.53914416058052E-04    -0.16707132927501E-04     0.15669176242837E-04
 


   Partial temperatures (for each ionic specie) 
   Species  Temp (K)   Mean Square Displacement (a.u.)
        1   9.09E+00     1.1454E-02
 
  nfi     ekinc              temph  tempp     etot                 enthal               econs                econt              vnhh    xnhh0   vnhp    xnhp0
    300    0.000072915233337    0.0    9.09     -45.328786250803     -45.328786250803     -45.328440830859     -45.333112506405   0.0000   0.0000   0.0018  -1.7923

   writing restart file (with schema): ./outdir/si_52.save/
     restart      :      0.07s CPU      0.11s WALL (       3 calls)
    301    0.000072140572323    0.0    9.05     -45.328790002105     -45.328790002105     -45.328446258399     -45.333112454781   0.0000   0.0000   0.0018  -1.7832
    302    0.000070790525018    0.0    9.02     -45.328793715034     -45.328793715034     -45.328450953558     -45.333112366206   0.0000   0.0000   0.0018  -1.7743
    303    0.000069460399591    0.0    9.01     -45.328798073667     -45.328798073667     -45.328455574195     -45.333112290132   0.0000   0.0000   0.0017  -1.7655
    304    0.000068672684437    0.0    9.02     -45.328803663894     -45.328803663894     -45.328460699606     -45.333112270515   0.0000   0.0000   0.0017  -1.7569
    305    0.000068589358174    0.0    9.06     -45.328810640778     -45.328810640778     -45.328466507585     -45.333112311004   0.0000   0.0000   0.0017  -1.7483
    306    0.000068985643204    0.0    9.10     -45.328818702280     -45.328818702280     -45.328472743402     -45.333112370606   0.0000   0.0000   0.0017  -1.7400
    307    0.000069501000036    0.0    9.17     -45.328827396314     -45.328827396314     -45.328479010125     -45.333112403245   0.0000   0.0000   0.0016  -1.7317
    308    0.000069925123614    0.0    9.25     -45.328836468055     -45.328836468055     -45.328485095833     -45.333112398891   0.0000   0.0000   0.0016  -1.7236
    309    0.000070270105461    0.0    9.34     -45.328845943165     -45.328845943165     -45.328491043814     -45.333112381241   0.0000   0.0000   0.0016  -1.7157
    310    0.000070633953115    0.0    9.45     -45.328855957761     -45.328855957761     -45.328496983282     -45.333112374494   0.0000   0.0000   0.0016  -1.7079
    311    0.000071050514978    0.0    9.57     -45.328866575238     -45.328866575238     -45.328502960364     -45.333112384132   0.0000   0.0000   0.0015  -1.7002
    312    0.000071454417075    0.0    9.71     -45.328877737514     -45.328877737514     -45.328508909427     -45.333112403307   0.0000   0.0000   0.0015  -1.6926
    313    0.000071736906557    0.0    9.86     -45.328889313586     -45.328889313586     -45.328514716856     -45.333112421044   0.0000   0.0000   0.0015  -1.6852
    314    0.000071831885139    0.0   10.02     -45.328901184792     -45.328901184792     -45.328520308227     -45.333112423743   0.0000   0.0000   0.0014  -1.6779
    315    0.000071794910511    0.0   10.20     -45.328913346379     -45.328913346379     -45.328525736754     -45.333112404876   0.0000   0.0000   0.0014  -1.6708
    316    0.000071809704163    0.0   10.39     -45.328925950125     -45.328925950125     -45.328531204030     -45.333112379207   0.0000   0.0000   0.0014  -1.6638
    317    0.000072062539247    0.0   10.59     -45.328939190228     -45.328939190228     -45.328536926418     -45.333112374489   0.0000   0.0000   0.0014  -1.6569
    318    0.000072562631544    0.0   10.79     -45.328953099664     -45.328953099664     -45.328542924550     -45.333112400109   0.0000   0.0000   0.0013  -1.6502
    319    0.000073100576751    0.0   11.01     -45.328967484933     -45.328967484933     -45.328548967835     -45.333112432758   0.0000   0.0000   0.0013  -1.6436
    320    0.000073418108663    0.0   11.24     -45.328982100048     -45.328982100048     -45.328554770171     -45.333112442211   0.0000   0.0000   0.0013  -1.6371
    321    0.000073422098684    0.0   11.49     -45.328996871095     -45.328996871095     -45.328560237145     -45.333112424663   0.0000   0.0000   0.0013  -1.6308
    322    0.000073228868168    0.0   11.75     -45.329011927663     -45.329011927663     -45.328565509275     -45.333112401999   0.0000   0.0000   0.0012  -1.6246
    323    0.000073025817491    0.0   12.02     -45.329027442417     -45.329027442417     -45.328570796362     -45.333112394854   0.0000   0.0000   0.0012  -1.6185
    324    0.000072910424066    0.0   12.30     -45.329043473697     -45.329043473697     -45.328576200520     -45.333112406817   0.0000   0.0000   0.0012  -1.6125
    325    0.000072830235953    0.0   12.59     -45.329059933549     -45.329059933549     -45.328581660617     -45.333112428776   0.0000   0.0000   0.0012  -1.6067
    326    0.000072632831379    0.0   12.88     -45.329076658222     -45.329076658222     -45.328587007794     -45.333112444148   0.0000   0.0000   0.0011  -1.6010
    327    0.000072196630954    0.0   13.20     -45.329093540625     -45.329093540625     -45.328592099995     -45.333112432234   0.0000   0.0000   0.0011  -1.5954
    328    0.000071590621173    0.0   13.52     -45.329110688033     -45.329110688033     -45.328596998640     -45.333112384954   0.0000   0.0000   0.0011  -1.5899
    329    0.000071133700496    0.0   13.85     -45.329128475194     -45.329128475194     -45.328602048655     -45.333112327573   0.0000   0.0000   0.0011  -1.5846
    330    0.000071227678365    0.0   14.20     -45.329147346088     -45.329147346088     -45.328607701594     -45.333112309122   0.0000   0.0000   0.0010  -1.5793
    331    0.000072035550631    0.0   14.56     -45.329167443714     -45.329167443714     -45.328614149989     -45.333112358876   0.0000   0.0000   0.0010  -1.5742
    332    0.000073279414151    0.0   14.93     -45.329188391430     -45.329188391430     -45.328621093278     -45.333112454680   0.0000   0.0000   0.0010  -1.5692
    333    0.000074362109670    0.0   15.30     -45.329209459698     -45.329209459698     -45.328627876092     -45.333112539644   0.0000   0.0000   0.0010  -1.5643
    334    0.000074726294083    0.0   15.69     -45.329229997099     -45.329229997099     -45.328633891390     -45.333112566001   0.0000   0.0000   0.0009  -1.5595
    335    0.000074182906258    0.0   16.07     -45.329249799383     -45.329249799383     -45.328638935799     -45.333112521571   0.0000   0.0000   0.0009  -1.5549
    336    0.000073018323805    0.0   16.47     -45.329269209224     -45.329269209224     -45.328643316202     -45.333112428805   0.0000   0.0000   0.0009  -1.5503
    337    0.000071854846442    0.0   16.87     -45.329288943040     -45.329288943040     -45.328647700008     -45.333112334350   0.0000   0.0000   0.0009  -1.5459
    338    0.000071330830734    0.0   17.29     -45.329309726554     -45.329309726554     -45.328652778399     -45.333112292177   0.0000   0.0000   0.0009  -1.5415
    339    0.000071734946607    0.0   17.71     -45.329331879569     -45.329331879569     -45.328658868715     -45.333112331932   0.0000   0.0000   0.0008  -1.5373
    340    0.000072811013756    0.0   18.14     -45.329355093786     -45.329355093786     -45.328665690922     -45.333112430824   0.0000   0.0000   0.0008  -1.5331
    341    0.000073903586860    0.0   18.58     -45.329378608757     -45.329378608757     -45.328672524372     -45.333112524958   0.0000   0.0000   0.0008  -1.5291
    342    0.000074366603325    0.0   19.03     -45.329401696187     -45.329401696187     -45.328678665690     -45.333112558522   0.0000   0.0000   0.0008  -1.5251
    343    0.000073931750871    0.0   19.48     -45.329424086087     -45.329424086087     -45.328683835876     -45.333112522311   0.0000   0.0000   0.0008  -1.5213
    344    0.000072792933943    0.0   19.94     -45.329446045576     -45.329446045576     -45.328688258415     -45.333112447087   0.0000   0.0000   0.0007  -1.5175
    345    0.000071428657042    0.0   20.41     -45.329468151079     -45.329468151079     -45.328692450727     -45.333112372466   0.0000   0.0000   0.0007  -1.5138
    346    0.000070344528375    0.0   20.89     -45.329490981850     -45.329490981850     -45.328696947899     -45.333112328149   0.0000   0.0000   0.0007  -1.5102
    347    0.000069867585621    0.0   21.39     -45.329514883959     -45.329514883959     -45.328702092677     -45.333112329803   0.0000   0.0000   0.0007  -1.5067
    348    0.000070038720227    0.0   21.89     -45.329539847866     -45.329539847866     -45.328707921158     -45.333112372626   0.0000   0.0000   0.0007  -1.5033
    349    0.000070640066931    0.0   22.40     -45.329565547668     -45.329565547668     -45.328714187312     -45.333112428735   0.0000   0.0000   0.0007  -1.5000
    350    0.000071356667121    0.0   22.92     -45.329591552698     -45.329591552698     -45.328720543579     -45.333112466185   0.0000   0.0000   0.0006  -1.4967
    351    0.000071955945664    0.0   23.44     -45.329617566823     -45.329617566823     -45.328726747872     -45.333112476361   0.0000   0.0000   0.0006  -1.4936
    352    0.000072336842938    0.0   23.97     -45.329643496390     -45.329643496390     -45.328732713737     -45.333112474738   0.0000   0.0000   0.0006  -1.4905
    353    0.000072454431992    0.0   24.50     -45.329669342144     -45.329669342144     -45.328738407574     -45.333112473186   0.0000   0.0000   0.0006  -1.4874
    354    0.000072277032889    0.0   25.03     -45.329695114338     -45.329695114338     -45.328743789205     -45.333112463243   0.0000   0.0000   0.0006  -1.4845
    355    0.000071861313863    0.0   25.58     -45.329720891848     -45.329720891848     -45.328748903542     -45.333112432695   0.0000   0.0000   0.0006  -1.4816
    356    0.000071438550452    0.0   26.13     -45.329746907656     -45.329746907656     -45.328753989202     -45.333112388080   0.0000   0.0000   0.0006  -1.4788
    357    0.000071369378316    0.0   26.68     -45.329773498217     -45.329773498217     -45.328759429717     -45.333112351374   0.0000   0.0000   0.0005  -1.4760
    358    0.000071975469828    0.0   27.25     -45.329800937026     -45.329800937026     -45.328765566655     -45.333112341588   0.0000   0.0000   0.0005  -1.4733
    359    0.000073363581175    0.0   27.81     -45.329829284656     -45.329829284656     -45.328772517327     -45.333112368429   0.0000   0.0000   0.0005  -1.4706
    360    0.000075316535342    0.0   28.37     -45.329858309134     -45.329858309134     -45.328780067634     -45.333112434020   0.0000   0.0000   0.0005  -1.4681
    361    0.000077283815737    0.0   28.94     -45.329887475019     -45.329887475019     -45.328787652860     -45.333112522860   0.0000   0.0000   0.0005  -1.4655
    362    0.000078538840321    0.0   29.51     -45.329916075074     -45.329916075074     -45.328794504976     -45.333112591647   0.0000   0.0000   0.0005  -1.4630
    363    0.000078527474402    0.0   30.09     -45.329943567671     -45.329943567671     -45.328800021907     -45.333112589953   0.0000   0.0000   0.0005  -1.4606
    364    0.000077237231226    0.0   30.68     -45.329969957676     -45.329969957676     -45.328804180415     -45.333112503983   0.0000   0.0000   0.0005  -1.4582
[...]
   1921    0.000241834661604    0.0   44.07     -45.353462891252     -45.353462891252     -45.351788093314     -45.332027616807   0.0000   0.0000   0.0025   5.9965
   1922    0.000239213356793    0.0   44.08     -45.353501993784     -45.353501993784     -45.351826762697     -45.332027446881   0.0000   0.0000   0.0025   6.0089
   1923    0.000235607384416    0.0   44.09     -45.353540127965     -45.353540127965     -45.351864473333     -45.332027230549   0.0000   0.0000   0.0025   6.0213
   1924    0.000232522275086    0.0   44.11     -45.353578946401     -45.353578946401     -45.351902840884     -45.332027077521   0.0000   0.0000   0.0025   6.0337
   1925    0.000230970563423    0.0   44.12     -45.353619602373     -45.353619602373     -45.351942973931     -45.332027082398   0.0000   0.0000   0.0025   6.0462
   1926    0.000230962500444    0.0   44.14     -45.353662067666     -45.353662067666     -45.351984833314     -45.332027193592   0.0000   0.0000   0.0025   6.0586
   1927    0.000231850153902    0.0   44.15     -45.353705511981     -45.353705511981     -45.352027635633     -45.332027273868   0.0000   0.0000   0.0025   6.0711
   1928    0.000233124517877    0.0   44.17     -45.353749294635     -45.353749294635     -45.352070836585     -45.332027287932   0.0000   0.0000   0.0025   6.0836
   1929    0.000234625879370    0.0   44.18     -45.353793234062     -45.353793234062     -45.352114361853     -45.332027323751   0.0000   0.0000   0.0025   6.0961
   1930    0.000236059262965    0.0   44.18     -45.353837000745     -45.353837000745     -45.352157949490     -45.332027419194   0.0000   0.0000   0.0025   6.1086
   1931    0.000236772284786    0.0   44.18     -45.353879855818     -45.353879855818     -45.352200851262     -45.332027484099   0.0000   0.0000   0.0025   6.1211
   1932    0.000236252323120    0.0   44.18     -45.353921292073     -45.353921292073     -45.352242469049     -45.332027437512   0.0000   0.0000   0.0025   6.1337
   1933    0.000234627972582    0.0   44.17     -45.353961617655     -45.353961617655     -45.352282970357     -45.332027320045   0.0000   0.0000   0.0025   6.1463
   1934    0.000232535747121    0.0   44.17     -45.354001682818     -45.354001682818     -45.352323069074     -45.332027207290   0.0000   0.0000   0.0025   6.1589
   1935    0.000230735963750    0.0   44.18     -45.354042338380     -45.354042338380     -45.352363534815     -45.332027103955   0.0000   0.0000   0.0025   6.1715
   1936    0.000229999810266    0.0   44.19     -45.354084362528     -45.354084362528     -45.352405143818     -45.332027009334   0.0000   0.0000   0.0025   6.1841
   1937    0.000230961729233    0.0   44.20     -45.354128415105     -45.354128415105     -45.352448620470     -45.332027008300   0.0000   0.0000   0.0025   6.1968
   1938    0.000233549094173    0.0   44.22     -45.354174412738     -45.354174412738     -45.352493971128     -45.332027176628   0.0000   0.0000   0.0025   6.2095
   1939    0.000236569424959    0.0   44.24     -45.354221010517     -45.354221010517     -45.352539917863     -45.332027427616   0.0000   0.0000   0.0025   6.2222
   1940    0.000238284431811    0.0   44.25     -45.354266264037     -45.354266264037     -45.352584530397     -45.332027569038   0.0000   0.0000   0.0025   6.2349
   1941    0.000237620516379    0.0   44.27     -45.354309048758     -45.354309048758     -45.352626647879     -45.332027513134   0.0000   0.0000   0.0025   6.2476
   1942    0.000234810419823    0.0   44.29     -45.354349729514     -45.354349729514     -45.352666581016     -45.332027336189   0.0000   0.0000   0.0026   6.2604
   1943    0.000231050602535    0.0   44.31     -45.354389631593     -45.354389631593     -45.352705627619     -45.332027136797   0.0000   0.0000   0.0026   6.2731
   1944    0.000227874313706    0.0   44.34     -45.354430298159     -45.354430298159     -45.352745361508     -45.332026952758   0.0000   0.0000   0.0026   6.2859
   1945    0.000226722104397    0.0   44.36     -45.354473139235     -45.354473139235     -45.352787281754     -45.332026841312   0.0000   0.0000   0.0026   6.2988
   1946    0.000228403129192    0.0   44.38     -45.354518953857     -45.354518953857     -45.352832301976     -45.332026908258   0.0000   0.0000   0.0026   6.3116
   1947    0.000232415253990    0.0   44.40     -45.354567160930     -45.354567160930     -45.352879930552     -45.332027168124   0.0000   0.0000   0.0026   6.3244
   1948    0.000236920753885    0.0   44.41     -45.354615731929     -45.354615731929     -45.352928159620     -45.332027456308   0.0000   0.0000   0.0026   6.3373
   1949    0.000239814103329    0.0   44.41     -45.354662423447     -45.354662423447     -45.352974682679     -45.332027576946   0.0000   0.0000   0.0026   6.3502
   1950    0.000240007838355    0.0   44.42     -45.354706235560     -45.354706235560     -45.353018374729     -45.332027495280   0.0000   0.0000   0.0026   6.3631
   1951    0.000237802542185    0.0   44.42     -45.354747707179     -45.354747707179     -45.353059636133     -45.332027310486   0.0000   0.0000   0.0026   6.3760
   1952    0.000234723725845    0.0   44.42     -45.354721768949     -45.354721768949     -45.353033903218     -45.331960937502   0.0000   0.0000   0.0026   6.3890
   1953    0.000233381705816    0.0   44.39     -45.354813910467     -45.354813910467     -45.353127099715     -45.332011706240   0.0000   0.0000   0.0026   6.4020
   1954    0.000235394742307    0.0   44.36     -45.354858612976     -45.354858612976     -45.353173037875     -45.332011824538   0.0000   0.0000   0.0026   6.4149
   1955    0.000239912463736    0.0   44.33     -45.354906364495     -45.354906364495     -45.353221711703     -45.332012135631   0.0000   0.0000   0.0026   6.4280
   1956    0.000244624218904    0.0   44.31     -45.354954654679     -45.354954654679     -45.353270663882     -45.332012485828   0.0000   0.0000   0.0026   6.4410
   1957    0.000247112026469    0.0   44.30     -45.355000795265     -45.355000795265     -45.353317236606     -45.332012629239   0.0000   0.0000   0.0026   6.4540
   1958    0.000246736427172    0.0   44.29     -45.355046560168     -45.355046560168     -45.353363524113     -45.332015297957   0.0000   0.0000   0.0026   6.4671
   1959    0.000244933629239    0.0   44.27     -45.355088076647     -45.355088076647     -45.353405636306     -45.332015168063   0.0000   0.0000   0.0026   6.4802
   1960    0.000243025637006    0.0   44.26     -45.355129905320     -45.355129905320     -45.353447829583     -45.332015172158   0.0000   0.0000   0.0026   6.4933
   1961    0.000241137736328    0.0   44.26     -45.355172063725     -45.355172063725     -45.353490172695     -45.332015248497   0.0000   0.0000   0.0026   6.5064
   1962    0.000239027553401    0.0   44.26     -45.355214058183     -45.355214058183     -45.353532279881     -45.332015250476   0.0000   0.0000   0.0026   6.5196
   1963    0.000236900020376    0.0   44.25     -45.355255919362     -45.355255919362     -45.353574339574     -45.332015161835   0.0000   0.0000   0.0026   6.5327
   1964    0.000235498073999    0.0   44.24     -45.355298333389     -45.355298333389     -45.353617197247     -45.332015089568   0.0000   0.0000   0.0026   6.5459
   1965    0.000235443623186    0.0   44.22     -45.355341874844     -45.355341874844     -45.353661533072     -45.332015100006   0.0000   0.0000   0.0026   6.5591
   1966    0.000236735487770    0.0   44.19     -45.355386497412     -45.355386497412     -45.353707312635     -45.332015169710   0.0000   0.0000   0.0026   6.5723
   1967    0.000238779355797    0.0   44.15     -45.355431663568     -45.355431663568     -45.353753910989     -45.332015277027   0.0000   0.0000   0.0026   6.5856
   1968    0.000240569062149    0.0   44.11     -45.355476509323     -45.355476509323     -45.353800309406     -45.332015415306   0.0000   0.0000   0.0027   6.5988
   1969    0.000240945276945    0.0   44.07     -45.355519955383     -45.355519955383     -45.353845261985     -45.332015499690   0.0000   0.0000   0.0027   6.6121
   1970    0.000239296098148    0.0   44.03     -45.355561379309     -45.355561379309     -45.353888021940     -45.332015393127   0.0000   0.0000   0.0027   6.6254
   1971    0.000236393189290    0.0   44.00     -45.355601610644     -45.355601610644     -45.353929366478     -45.332015096556   0.0000   0.0000   0.0027   6.6387
   1972    0.000234268290219    0.0   43.98     -45.355642884373     -45.355642884373     -45.353971545151     -45.332014822575   0.0000   0.0000   0.0027   6.6521
   1973    0.000236546124799    0.0   43.91     -45.355593063330     -45.355593063330     -45.353924386975     -45.331920796614   0.0000   0.0000   0.0027   6.6654
   1974    0.000245339431844    0.0   43.80     -45.355642785208     -45.355642785208     -45.353978381571     -45.331921441755   0.0000   0.0000   0.0027   6.6788
   1975    0.000257145420808    0.0   43.70     -45.355696108259     -45.355696108259     -45.354035526998     -45.331922276280   0.0000   0.0000   0.0027   6.6922
   1976    0.000265787375651    0.0   43.61     -45.355746446882     -45.355746446882     -45.354089195675     -45.331922838476   0.0000   0.0000   0.0027   6.7056
   1977    0.000267185572784    0.0   43.54     -45.355789509049     -45.355789509049     -45.354135038137     -45.331922846165   0.0000   0.0000   0.0027   6.7190
   1978    0.000261339112177    0.0   43.48     -45.355825293086     -45.355825293086     -45.354173126655     -45.331922360031   0.0000   0.0000   0.0027   6.7324
   1979    0.000251969939870    0.0   43.42     -45.355857651601     -45.355857651601     -45.354207473318     -45.331921660631   0.0000   0.0000   0.0027   6.7459
   1980    0.000244358302239    0.0   43.37     -45.355892081160     -45.355892081160     -45.354243775849     -45.331921160544   0.0000   0.0000   0.0027   6.7593
   1981    0.000242290471375    0.0   43.32     -45.355932519558     -45.355932519558     -45.354286158449     -45.331921197962   0.0000   0.0000   0.0027   6.7728
   1982    0.000245759863729    0.0   43.27     -45.355978797013     -45.355978797013     -45.354334576694     -45.331921739536   0.0000   0.0000   0.0027   6.7863
   1983    0.000251265148518    0.0   43.20     -45.356026921503     -45.356026921503     -45.354385083919     -45.331922346811   0.0000   0.0000   0.0027   6.7998
   1984    0.000254724502732    0.0   43.14     -45.356072372481     -45.356072372481     -45.354433137163     -45.331922565954   0.0000   0.0000   0.0027   6.8133
   1985    0.000254505566700    0.0   43.06     -45.356113507848     -45.356113507848     -45.354477037123     -45.331922336348   0.0000   0.0000   0.0027   6.8269
   1986    0.000252002712075    0.0   42.99     -45.356152072133     -45.356152072133     -45.354518471218     -45.331921955888   0.0000   0.0000   0.0027   6.8404
   1987    0.000249826154630    0.0   42.91     -45.356191011362     -45.356191011362     -45.354560347813     -45.331921726338   0.0000   0.0000   0.0027   6.8540
   1988    0.000249700287536    0.0   42.83     -45.356232168482     -45.356232168482     -45.354604488126     -45.331921747353   0.0000   0.0000   0.0027   6.8676
   1989    0.000251552137375    0.0   42.75     -45.356275448995     -45.356275448995     -45.354650771345     -45.331921973289   0.0000   0.0000   0.0027   6.8812
   1990    0.000253766785278    0.0   42.67     -45.356319156883     -45.356319156883     -45.354697448075     -45.331922270787   0.0000   0.0000   0.0027   6.8948
   1991    0.000254267577067    0.0   42.60     -45.356361076656     -45.356361076656     -45.354742213731     -45.331922411069   0.0000   0.0000   0.0027   6.9084
   1992    0.000252150508630    0.0   42.53     -45.356400234937     -45.356400234937     -45.354783983456     -45.331922209646   0.0000   0.0000   0.0027   6.9220
   1993    0.000248802763057    0.0   42.47     -45.356438237751     -45.356438237751     -45.354824261264     -45.331921776688   0.0000   0.0000   0.0027   6.9357
   1994    0.000247084481299    0.0   42.42     -45.356478395818     -45.356478395818     -45.354866301777     -45.331921497710   0.0000   0.0000   0.0027   6.9493
   1995    0.000248866918801    0.0   42.38     -45.356522852156     -45.356522852156     -45.354912260997     -45.331921647722   0.0000   0.0000   0.0027   6.9630
   1996    0.000253285087657    0.0   42.35     -45.356570543142     -45.356570543142     -45.354961154486     -45.331922098626   0.0000   0.0000   0.0027   6.9766
   1997    0.000257466953702    0.0   42.32     -45.356618126474     -45.356618126474     -45.355009756118     -45.331922490218   0.0000   0.0000   0.0027   6.9903
   1998    0.000258805123131    0.0   42.30     -45.356662660586     -45.356662660586     -45.355055234903     -45.331922595809   0.0000   0.0000   0.0027   7.0040
   1999    0.000256582657433    0.0   42.27     -45.356703367870     -45.356703367870     -45.355096881888     -45.331922422709   0.0000   0.0000   0.0027   7.0177

 * Physical Quantities at step:  2000

   from rhoofr: total integrated electronic density
   in g-space =     32.000000   in r-space =    32.000000


                total energy =      -45.35674165434 Hartree a.u.
              kinetic energy =       11.87411 Hartree a.u.
        electrostatic energy =      -40.81690 Hartree a.u.
                         esr =        0.00000 Hartree a.u.
                       eself =      102.12922 Hartree a.u.
      pseudopotential energy =        3.01571 Hartree a.u.
  n-l pseudopotential energy =        4.88129 Hartree a.u.
 exchange-correlation energy =      -24.31095 Hartree a.u.
           average potential =        0.00000 Hartree a.u.



   Eigenvalues (eV), kp =   1 , spin =  1

   -6.65   -3.06   -3.06   -2.85   -2.74   -2.67   -2.59    1.85    2.04    2.08
    2.14    2.19    2.31    4.29    4.37    4.43
 
 
   CELL_PARAMETERS
   10.64076206    0.00000000    0.00000000
    0.00000000   10.64076206    0.00000000
    0.00000000    0.00000000   10.64076206

   System Density [g/cm^3] :              2.0898178971


   System Volume [A.U.^3] :           1204.8089816234


   Center of mass square displacement (a.u.):   0.000000

   ATOMIC_POSITIONS
   Si      0.36572223542882E+00     0.22218271642977E+00    -0.75370628028970E+00
   Si     -0.26747348032975E+00     0.52162151160488E+01     0.53397370719743E+01
   Si      0.55362073818670E+01     0.51637689913809E+01     0.62906438407152E+00
   Si      0.50564220196237E+01     0.75869169419707E-01     0.53276803085326E+01
   Si      0.23103600539295E+01     0.25669935961034E+01     0.27847216389649E+01
   Si      0.29952927519312E+01     0.73674284016761E+01     0.77978124177266E+01
   Si      0.83414235218436E+01     0.85846120983898E+01     0.28237802484766E+01
   Si      0.76133335091624E+01     0.27284345210737E+01     0.79319211688812E+01
 
   ATOMIC_VELOCITIES
   Si      0.65298541453122E-04     0.73481203866013E-04    -0.10559063160042E-03
   Si     -0.32301366187553E-04    -0.29463353423551E-04    -0.20890912736882E-04
   Si      0.29882875398868E-04    -0.62686434283635E-04     0.56574588333283E-04
   Si     -0.50124640129135E-04     0.26983664669568E-04     0.30907626302699E-04
   Si     -0.35089355226260E-04    -0.25456610935466E-04     0.24169833740892E-04
   Si      0.22619584079529E-04    -0.87788428872074E-04    -0.39638217459874E-04
   Si      0.31790607465753E-04     0.90846040794912E-04     0.66687369391435E-04
   Si     -0.32076246854123E-04     0.14083918183604E-04    -0.12219655970911E-04
 


   Partial temperatures (for each ionic specie) 
   Species  Temp (K)   Mean Square Displacement (a.u.)
        1   4.22E+01     3.4458E-01
 
  nfi     ekinc              temph  tempp     etot                 enthal               econs                econt              vnhh    xnhh0   vnhp    xnhp0
   2000    0.000252111536417    0.0   42.25     -45.356741654338     -45.356741654338     -45.355136115970     -45.331922078273   0.0000   0.0000   0.0027   7.0314

   writing restart file (with schema): ./outdir/si_52.save/
     restart      :      0.50s CPU      0.69s WALL (      20 calls)


   Averaged Physical Quantities
                      accumulated      this run
   ekinc         :        0.00014       0.00014 (AU)
   ekin          :       12.30024      12.30024 (AU)
   epot          :      -62.54131     -62.54131 (AU)
   total energy  :      -45.33752     -45.33752 (AU)
   temperature   :       41.52102      41.52102 (K )
   enthalpy      :      -45.33752     -45.33752 (AU)
   econs         :      -45.33594     -45.33594 (AU)
   pressure      :        0.00000       0.00000 (Gpa)
   volume        :     1204.80898    1204.80898 (AU)



     Called by MAIN_LOOP:
     initialize   :      4.85s CPU      4.88s WALL (       1 calls)
     main_loop    :   1362.62s CPU   1385.87s WALL (    2000 calls)
     cpr_total    :   1363.22s CPU   1386.66s WALL (       1 calls)

     Called by INIT_RUN:
     init_readfil :      0.02s CPU      0.02s WALL (       1 calls)

     Called by CPR:
     cpr_md       :   1363.22s CPU   1386.66s WALL (    2000 calls)
     move_electro :   1329.89s CPU   1352.82s WALL (    2000 calls)

     Called by move_electrons:
     rhoofr       :    142.90s CPU    144.23s WALL (    2000 calls)
     vofrho       :    505.00s CPU    521.41s WALL (    2000 calls)
     dforce       :     88.71s CPU     89.52s WALL (   16000 calls)
     calphi       :      4.51s CPU      4.53s WALL (    2000 calls)
     newd         :    554.41s CPU    558.67s WALL (    2000 calls)
     nlfl         :      0.36s CPU      0.36s WALL (    2000 calls)

     Called by ortho:
     ortho_iter   :      0.12s CPU      0.12s WALL (    2000 calls)
     rsg          :      0.25s CPU      0.25s WALL (    2000 calls)
     rhoset       :      0.59s CPU      0.59s WALL (    2000 calls)
     sigset       :      0.42s CPU      0.42s WALL (    2000 calls)
     tauset       :      0.43s CPU      0.43s WALL (    2000 calls)
     ortho        :     15.01s CPU     15.06s WALL (    2000 calls)
     updatc       :      0.49s CPU      0.50s WALL (    2000 calls)

     Small boxes:
     rhov         :     54.03s CPU     54.47s WALL (    2000 calls)
     fftb         :    347.79s CPU    350.62s WALL ( 2150001 calls)
     set_cc       :      8.10s CPU      8.20s WALL (    2000 calls)
     forcecc      :      8.01s CPU      8.09s WALL (    2000 calls)

     Low-level routines:
     prefor       :     14.67s CPU     14.78s WALL (    8001 calls)
     nlfq         :     19.92s CPU     19.96s WALL (    2000 calls)
     nlsm1        :     12.97s CPU     13.02s WALL (    6001 calls)
     nlsm2        :     19.38s CPU     19.42s WALL (    2000 calls)
     fft          :    329.35s CPU    339.51s WALL (   20020 calls)
     ffts         :     14.57s CPU     14.74s WALL (    4000 calls)
     fftw         :     66.98s CPU     67.64s WALL (   48000 calls)
     fft_scatt_xy :     52.09s CPU     53.95s WALL (   72020 calls)
     fft_scatt_yz :    176.89s CPU    179.10s WALL (   72020 calls)
     fft_scatt_tg :      9.27s CPU      9.40s WALL (   48000 calls)
     betagx       :      3.02s CPU      3.03s WALL (       1 calls)
     qradx        :      1.29s CPU      1.29s WALL (       1 calls)
     nlinit       :      4.81s CPU      4.82s WALL (       1 calls)
     init_dim     :      0.01s CPU      0.02s WALL (       1 calls)
     newnlinit    :      0.04s CPU      0.05s WALL (       1 calls)
     from_restart :      0.00s CPU      0.01s WALL (       1 calls)
     strucf       :      1.45s CPU      1.50s WALL (    2001 calls)
     calbec       :      0.01s CPU      0.01s WALL (    2001 calls)
 
 
     CP           :  22m48.63s CPU  23m12.11s WALL

 
   This run was terminated on:  19:38:14  11Apr2020            

=------------------------------------------------------------------------------=
   JOB DONE.
=------------------------------------------------------------------------------=
