
     Program PWSCF v.6.4.1 starts on  7Apr2020 at 17:20:55 

     This program is part of the open-source Quantum ESPRESSO suite
     for quantum simulation of materials; please cite
         "P. Giannozzi et al., J. Phys.:Condens. Matter 21 395502 (2009);
         "P. Giannozzi et al., J. Phys.:Condens. Matter 29 465901 (2017);
          URL http://www.quantum-espresso.org", 
     in publications or presentations arising from this work. More details at
     http://www.quantum-espresso.org/quote

     Parallel version (MPI), running on     2 processors

     MPI processes distributed on     1 nodes
     R & G space division:  proc/nbgrp/npool/nimage =       2
     Waiting for input...
     Reading input from standard input

     Current dimensions of program PWSCF are:
     Max number of different atomic species (ntypx) = 10
     Max number of k-points (npk) =  40000
     Max angular momentum in pseudopotentials (lmaxx) =  3
               file O.pbe-n-kjpaw_psl.0.1.UPF: wavefunction(s)  2P renormalized

     Subspace diagonalization in iterative solution of the eigenvalue problem:
     a serial algorithm will be used

 
     Parallelization info
     --------------------
     sticks:   dense  smooth     PW     G-vecs:    dense   smooth      PW
     Min         894     894    218                28525    28525    3560
     Max         895     895    219                28526    28526    3563
     Sum        1789    1789    437                57051    57051    7123
 


     bravais-lattice index     =            1
     lattice parameter (alat)  =      15.0000  a.u.
     unit-cell volume          =    3375.0000 (a.u.)^3
     number of atoms/cell      =            3
     number of atomic types    =            2
     number of electrons       =         8.00
     number of Kohn-Sham states=            4
     kinetic-energy cutoff     =      25.0000  Ry
     charge density cutoff     =     100.0000  Ry
     convergence threshold     =      1.0E-08
     mixing beta               =       0.7000
     number of iterations used =            8  plain     mixing
     Exchange-correlation      = SLA PW PBX PBC ( 1  4  3  4 0 0)
     nstep                     =          100


     celldm(1)=  15.000000  celldm(2)=   0.000000  celldm(3)=   0.000000
     celldm(4)=   0.000000  celldm(5)=   0.000000  celldm(6)=   0.000000

     crystal axes: (cart. coord. in units of alat)
               a(1) = (   1.000000   0.000000   0.000000 )  
               a(2) = (   0.000000   1.000000   0.000000 )  
               a(3) = (   0.000000   0.000000   1.000000 )  

     reciprocal axes: (cart. coord. in units 2 pi/alat)
               b(1) = (  1.000000  0.000000  0.000000 )  
               b(2) = (  0.000000  1.000000  0.000000 )  
               b(3) = (  0.000000  0.000000  1.000000 )  


     PseudoPot. # 1 for H  read from file:
     /home/anonymous/quantumEspresso_2019/SSSP_precision_pseudos/H_ONCV_PBE-1.0.oncvpsp.upf
     MD5 check sum: 1790becc920ee074925cf490c71280fe
     Pseudo is Norm-conserving, Zval =  1.0
     Generated using ONCVPSP code by D. R. Hamann
     Using radial grid of 1166 points,  2 beta functions with: 
                l(1) =   0
                l(2) =   0

     PseudoPot. # 2 for O  read from file:
     /home/anonymous/quantumEspresso_2019/SSSP_precision_pseudos/O.pbe-n-kjpaw_psl.0.1.UPF
     MD5 check sum: 0234752ac141de4415c5fc33072bef88
     Pseudo is Projector augmented-wave + core cor, Zval =  6.0
     Generated using "atomic" code by A. Dal Corso v.5.0.99 svn rev. 10869
     Shape of augmentation charge: BESSEL
     Using radial grid of 1095 points,  4 beta functions with: 
                l(1) =   0
                l(2) =   0
                l(3) =   1
                l(4) =   1
     Q(r) pseudized with 0 coefficients 


     atomic species   valence    mass     pseudopotential
        H              1.00     1.00784     H ( 1.00)
        O              6.00    15.99900     O ( 1.00)

     No symmetry found



   Cartesian axes

     site n.     atom                  positions (alat units)
         1           O   tau(   1) = (   0.6299624   0.6023911   0.6298886  )
         2           H   tau(   2) = (   0.6298790   0.6814236   0.7281543  )
         3           H   tau(   3) = (   0.6298848   0.6815005   0.5316832  )

     number of k points=     1
                       cart. coord. in units 2pi/alat
        k(    1) = (   0.0000000   0.0000000   0.0000000), wk =   2.0000000

     Dense  grid:    57051 G-vectors     FFT dimensions: (  48,  48,  48)

     Estimated max dynamical RAM per process >      40.48 MB

     Estimated total dynamical RAM >      80.95 MB

     Check: negative core charge=   -0.000056

     Initial potential from superposition of free atoms

     starting charge    7.99998, renormalised to    8.00000

     negative rho (up, down):  3.485E-03 0.000E+00
     Starting wfcs are    6 randomized atomic wfcs
     Checking if some PAW data can be deallocated... 

     total cpu time spent up to now is        0.9 secs

     Self-consistent Calculation

     iteration #  1     ecut=    25.00 Ry     beta= 0.70
     Davidson diagonalization with overlap
     ethr =  1.00E-02,  avg # of iterations =  2.0

     negative rho (up, down):  5.851E-03 0.000E+00

     total cpu time spent up to now is        1.1 secs

     total energy              =     -43.66767693 Ry
     Harris-Foulkes estimate   =     -43.88925705 Ry
     estimated scf accuracy    <       0.32277585 Ry

     iteration #  2     ecut=    25.00 Ry     beta= 0.70
     Davidson diagonalization with overlap
     ethr =  4.03E-03,  avg # of iterations =  2.0

     negative rho (up, down):  4.576E-03 0.000E+00

     total cpu time spent up to now is        1.4 secs

     total energy              =     -43.71622017 Ry
     Harris-Foulkes estimate   =     -43.87973534 Ry
     estimated scf accuracy    <       0.32705361 Ry

     iteration #  3     ecut=    25.00 Ry     beta= 0.70
     Davidson diagonalization with overlap
     ethr =  4.03E-03,  avg # of iterations =  2.0

     negative rho (up, down):  5.304E-03 0.000E+00

     total cpu time spent up to now is        1.7 secs

     total energy              =     -43.78930949 Ry
     Harris-Foulkes estimate   =     -43.79233989 Ry
     estimated scf accuracy    <       0.00660684 Ry

     iteration #  4     ecut=    25.00 Ry     beta= 0.70
     Davidson diagonalization with overlap
     ethr =  8.26E-05,  avg # of iterations =  2.0

     negative rho (up, down):  5.215E-03 0.000E+00

     total cpu time spent up to now is        1.9 secs

     total energy              =     -43.79076252 Ry
     Harris-Foulkes estimate   =     -43.79084627 Ry
     estimated scf accuracy    <       0.00020486 Ry

     iteration #  5     ecut=    25.00 Ry     beta= 0.70
     Davidson diagonalization with overlap
     ethr =  2.56E-06,  avg # of iterations =  2.0

     negative rho (up, down):  5.192E-03 0.000E+00

     total cpu time spent up to now is        2.2 secs

     total energy              =     -43.79077915 Ry
     Harris-Foulkes estimate   =     -43.79078240 Ry
     estimated scf accuracy    <       0.00001295 Ry

     iteration #  6     ecut=    25.00 Ry     beta= 0.70
     Davidson diagonalization with overlap
     ethr =  1.62E-07,  avg # of iterations =  2.0

     negative rho (up, down):  5.189E-03 0.000E+00

     total cpu time spent up to now is        2.5 secs

     total energy              =     -43.79078095 Ry
     Harris-Foulkes estimate   =     -43.79078063 Ry
     estimated scf accuracy    <       0.00000038 Ry

     iteration #  7     ecut=    25.00 Ry     beta= 0.70
     Davidson diagonalization with overlap
     ethr =  4.69E-09,  avg # of iterations =  2.0

     negative rho (up, down):  5.196E-03 0.000E+00

     total cpu time spent up to now is        2.8 secs

     total energy              =     -43.79078089 Ry
     Harris-Foulkes estimate   =     -43.79078106 Ry
     estimated scf accuracy    <       0.00000037 Ry

     iteration #  8     ecut=    25.00 Ry     beta= 0.70
     Davidson diagonalization with overlap
     ethr =  4.58E-09,  avg # of iterations =  1.0

     negative rho (up, down):  5.197E-03 0.000E+00

     total cpu time spent up to now is        3.1 secs

     total energy              =     -43.79078091 Ry
     Harris-Foulkes estimate   =     -43.79078091 Ry
     estimated scf accuracy    <       0.00000001 Ry

     iteration #  9     ecut=    25.00 Ry     beta= 0.70
     Davidson diagonalization with overlap
     ethr =  1.30E-10,  avg # of iterations =  2.0

     negative rho (up, down):  5.197E-03 0.000E+00

     total cpu time spent up to now is        3.3 secs

     End of self-consistent calculation

          k = 0.0000 0.0000 0.0000 (  7123 PWs)   bands (ev):

   -25.2739 -12.4634  -9.2110  -6.9492

     highest occupied level (ev):    -6.9492

!    total energy              =     -43.79078091 Ry
     Harris-Foulkes estimate   =     -43.79078091 Ry
     estimated scf accuracy    <          1.4E-09 Ry

     convergence has been achieved in   9 iterations

     negative rho (up, down):  5.197E-03 0.000E+00

     Forces acting on atoms (cartesian axes, Ry/au):

     atom    1 type  2   force =     0.00018499    0.00000332   -0.00003548
     atom    2 type  1   force =    -0.00009450   -0.00001129    0.00001327
     atom    3 type  1   force =    -0.00009048    0.00000797    0.00002221

     Total force =     0.000231     Total SCF correction =     0.000098
     SCF correction compared to forces is large: reduce conv_thr to get better values

     Molecular Dynamics Calculation

     Starting temperature  =   300.00 K

     temperature is set once at start

     mass H                =     1.01
     mass O                =    16.00
     Time step             =    20.00 a.u.,  0.9676 femto-seconds

     Entering Dynamics:    iteration =     1
                           time      =   0.0010 pico-seconds


ATOMIC_POSITIONS (angstrom)
O        4.999115880   4.781111680   5.000314903
H        5.025881219   5.412563712   5.793245489
H        4.994487620   5.413205012   4.199384407


     kinetic energy (Ekin) =     0.00570027 Ry
     temperature           =   300.00000000 K 
     Ekin + Etot (const)   =   -43.78508064 Ry

     Linear momentum :   -0.0000000000    0.0000000000    0.0000000000

     Writing output data file h2o.save/
     Message from routine punch:
     wavefunctions written to file
     NEW-OLD atomic charge density approx. for the potential

     Check: negative core charge=   -0.000056

     negative rho (up, down):  5.233E-03 0.000E+00

     total cpu time spent up to now is        3.7 secs

     Self-consistent Calculation

     iteration #  1     ecut=    25.00 Ry     beta= 0.70
     Davidson diagonalization with overlap
     ethr =  1.00E-06,  avg # of iterations =  4.0

     negative rho (up, down):  5.068E-03 0.000E+00

     total cpu time spent up to now is        4.0 secs

     total energy              =     -43.78975852 Ry
     Harris-Foulkes estimate   =     -43.78989487 Ry
     estimated scf accuracy    <       0.00048463 Ry

     iteration #  2     ecut=    25.00 Ry     beta= 0.70
     Davidson diagonalization with overlap
     ethr =  6.06E-06,  avg # of iterations =  2.0

     negative rho (up, down):  5.124E-03 0.000E+00

     total cpu time spent up to now is        4.3 secs

     total energy              =     -43.78984068 Ry
     Harris-Foulkes estimate   =     -43.79006900 Ry
     estimated scf accuracy    <       0.00045455 Ry

     iteration #  3     ecut=    25.00 Ry     beta= 0.70
     Davidson diagonalization with overlap
     ethr =  5.68E-06,  avg # of iterations =  2.0

     negative rho (up, down):  5.125E-03 0.000E+00

     total cpu time spent up to now is        4.6 secs

     total energy              =     -43.78994317 Ry
     Harris-Foulkes estimate   =     -43.78994331 Ry
     estimated scf accuracy    <       0.00000705 Ry

     iteration #  4     ecut=    25.00 Ry     beta= 0.70
     Davidson diagonalization with overlap
     ethr =  8.81E-08,  avg # of iterations =  2.0

     negative rho (up, down):  5.124E-03 0.000E+00

     total cpu time spent up to now is        4.9 secs

     total energy              =     -43.78994468 Ry
     Harris-Foulkes estimate   =     -43.78994465 Ry
     estimated scf accuracy    <       0.00000014 Ry

     iteration #  5     ecut=    25.00 Ry     beta= 0.70
     Davidson diagonalization with overlap
     ethr =  1.70E-09,  avg # of iterations =  2.0

     negative rho (up, down):  5.124E-03 0.000E+00

     total cpu time spent up to now is        5.1 secs

     End of self-consistent calculation

          k = 0.0000 0.0000 0.0000 (  7123 PWs)   bands (ev):

   -25.0983 -12.3691  -9.1463  -6.9109

     highest occupied level (ev):    -6.9109

!    total energy              =     -43.78994470 Ry
     Harris-Foulkes estimate   =     -43.78994471 Ry
     estimated scf accuracy    <          7.2E-09 Ry

     convergence has been achieved in   5 iterations

     negative rho (up, down):  5.124E-03 0.000E+00

     Forces acting on atoms (cartesian axes, Ry/au):

     atom    1 type  2   force =     0.00059406    0.02336430   -0.00716416
     atom    2 type  1   force =    -0.00072895   -0.00889744   -0.01778912
     atom    3 type  1   force =     0.00013489   -0.01446686    0.02495328

     Total force =     0.042728     Total SCF correction =     0.000196

     Entering Dynamics:    iteration =     2
                           time      =   0.0019 pico-seconds


ATOMIC_POSITIONS (angstrom)
O        4.997814566   4.780988267   5.000685224
H        5.051830202   5.414169675   5.802551898
H        4.989196402   5.413558173   4.184199322


     kinetic energy (Ekin) =     0.00493388 Ry
     temperature           =   259.66579729 K 
     Ekin + Etot (const)   =   -43.78501082 Ry

     Linear momentum :    0.0000000000   -0.0000000000    0.0000000000

     Writing output data file h2o.save/
     Message from routine punch:
     wavefunctions written to file

     first order wave-functions extrapolation
     first order charge density extrapolation

     Check: negative core charge=   -0.000056

     negative rho (up, down):  5.072E-03 0.000E+00

     total cpu time spent up to now is        5.6 secs

     Self-consistent Calculation

     iteration #  1     ecut=    25.00 Ry     beta= 0.70
     Davidson diagonalization with overlap
     ethr =  1.00E-06,  avg # of iterations =  3.0

     negative rho (up, down):  5.100E-03 0.000E+00

     total cpu time spent up to now is        5.9 secs

     total energy              =     -43.78843334 Ry
     Harris-Foulkes estimate   =     -43.78741593 Ry
     estimated scf accuracy    <       0.00005594 Ry

     iteration #  2     ecut=    25.00 Ry     beta= 0.70
     Davidson diagonalization with overlap
     ethr =  6.99E-07,  avg # of iterations =  2.0

     negative rho (up, down):  5.080E-03 0.000E+00

     total cpu time spent up to now is        6.1 secs

     total energy              =     -43.78844370 Ry
     Harris-Foulkes estimate   =     -43.78847186 Ry
     estimated scf accuracy    <       0.00005657 Ry

     iteration #  3     ecut=    25.00 Ry     beta= 0.70
     Davidson diagonalization with overlap
     ethr =  6.99E-07,  avg # of iterations =  2.0

     negative rho (up, down):  5.081E-03 0.000E+00

     total cpu time spent up to now is        6.4 secs

     total energy              =     -43.78845607 Ry
     Harris-Foulkes estimate   =     -43.78845623 Ry
     estimated scf accuracy    <       0.00000061 Ry

     iteration #  4     ecut=    25.00 Ry     beta= 0.70
     Davidson diagonalization with overlap
     ethr =  7.67E-09,  avg # of iterations =  2.0

     negative rho (up, down):  5.081E-03 0.000E+00

     total cpu time spent up to now is        6.7 secs

     total energy              =     -43.78845623 Ry
     Harris-Foulkes estimate   =     -43.78845624 Ry
     estimated scf accuracy    <       0.00000001 Ry

     iteration #  5     ecut=    25.00 Ry     beta= 0.70
     Davidson diagonalization with overlap
     ethr =  1.74E-10,  avg # of iterations =  2.0

     negative rho (up, down):  5.081E-03 0.000E+00

     total cpu time spent up to now is        7.0 secs

     End of self-consistent calculation

          k = 0.0000 0.0000 0.0000 (  7123 PWs)   bands (ev):

   -24.9815 -12.3140  -9.0932  -6.8841

     highest occupied level (ev):    -6.8841

!    total energy              =     -43.78845624 Ry
     Harris-Foulkes estimate   =     -43.78845624 Ry
     estimated scf accuracy    <          7.9E-10 Ry

     convergence has been achieved in   5 iterations

     negative rho (up, down):  5.081E-03 0.000E+00

     Forces acting on atoms (cartesian axes, Ry/au):

     atom    1 type  2   force =     0.00141515    0.03695990   -0.01063603
     atom    2 type  1   force =    -0.00203149   -0.01449593   -0.02996634
     atom    3 type  1   force =     0.00061634   -0.02246397    0.04060237

     Total force =     0.068898     Total SCF correction =     0.000070

     Entering Dynamics:    iteration =     3
                           time      =   0.0029 pico-seconds


ATOMIC_POSITIONS (angstrom)
O        4.996533794   4.781401353   5.000901155
H        5.077311067   5.412435338   5.804953156
H        4.984047209   5.408734957   4.178370250


     kinetic energy (Ekin) =     0.00355233 Ry
     temperature           =   186.95573815 K 
     Ekin + Etot (const)   =   -43.78490391 Ry

     Linear momentum :   -0.0000000000   -0.0000000000   -0.0000000000

     Writing output data file h2o.save/
     Message from routine punch:
     wavefunctions written to file

     second order wave-functions extrapolation
     second order charge density extrapolation

     Check: negative core charge=   -0.000056

     negative rho (up, down):  5.073E-03 0.000E+00

     total cpu time spent up to now is        7.4 secs

     Self-consistent Calculation

     iteration #  1     ecut=    25.00 Ry     beta= 0.70
     Davidson diagonalization with overlap
     ethr =  1.00E-06,  avg # of iterations =  3.0

     negative rho (up, down):  5.110E-03 0.000E+00

     total cpu time spent up to now is        7.7 secs

     total energy              =     -43.78796176 Ry
     Harris-Foulkes estimate   =     -43.78759830 Ry
     estimated scf accuracy    <       0.00007765 Ry

     iteration #  2     ecut=    25.00 Ry     beta= 0.70
     Davidson diagonalization with overlap
     ethr =  9.71E-07,  avg # of iterations =  2.0

     negative rho (up, down):  5.086E-03 0.000E+00

     total cpu time spent up to now is        8.0 secs

     total energy              =     -43.78797654 Ry
     Harris-Foulkes estimate   =     -43.78801814 Ry
     estimated scf accuracy    <       0.00008482 Ry

     iteration #  3     ecut=    25.00 Ry     beta= 0.70
     Davidson diagonalization with overlap
     ethr =  9.71E-07,  avg # of iterations =  2.0

     negative rho (up, down):  5.085E-03 0.000E+00

     total cpu time spent up to now is        8.2 secs

     total energy              =     -43.78799472 Ry
     Harris-Foulkes estimate   =     -43.78799478 Ry
     estimated scf accuracy    <       0.00000067 Ry

     iteration #  4     ecut=    25.00 Ry     beta= 0.70
     Davidson diagonalization with overlap
     ethr =  8.34E-09,  avg # of iterations =  2.0

     negative rho (up, down):  5.086E-03 0.000E+00

     total cpu time spent up to now is        8.5 secs

     total energy              =     -43.78799483 Ry
     Harris-Foulkes estimate   =     -43.78799483 Ry
     estimated scf accuracy    <       0.00000001 Ry

     iteration #  5     ecut=    25.00 Ry     beta= 0.70
     Davidson diagonalization with overlap
     ethr =  1.36E-10,  avg # of iterations =  3.0

     negative rho (up, down):  5.086E-03 0.000E+00

     total cpu time spent up to now is        8.8 secs

     End of self-consistent calculation

          k = 0.0000 0.0000 0.0000 (  7123 PWs)   bands (ev):

   -24.9543 -12.3253  -9.0599  -6.8771

     highest occupied level (ev):    -6.8771

!    total energy              =     -43.78799483 Ry
     Harris-Foulkes estimate   =     -43.78799484 Ry
     estimated scf accuracy    <          1.9E-09 Ry

     convergence has been achieved in   5 iterations

     negative rho (up, down):  5.086E-03 0.000E+00

     Forces acting on atoms (cartesian axes, Ry/au):

     atom    1 type  2   force =     0.00214179    0.03743901   -0.01018265
     atom    2 type  1   force =    -0.00323202   -0.01510015   -0.03369770
     atom    3 type  1   force =     0.00109023   -0.02233886    0.04388034

     Total force =     0.072867     Total SCF correction =     0.000065

     Entering Dynamics:    iteration =     4
                           time      =   0.0039 pico-seconds


ATOMIC_POSITIONS (angstrom)
O        4.995284111   4.782357893   5.000969278
H        5.102047179   5.407221471   5.799589447
H        4.979149238   5.398764192   4.182652534


     kinetic energy (Ekin) =     0.00310987 Ry
     temperature           =   163.66994390 K 
     Ekin + Etot (const)   =   -43.78488496 Ry

     Linear momentum :   -0.0000000000    0.0000000000    0.0000000000

     Writing output data file h2o.save/
     Message from routine punch:
     wavefunctions written to file

     second order wave-functions extrapolation
     second order charge density extrapolation

     Check: negative core charge=   -0.000056

     negative rho (up, down):  5.146E-03 0.000E+00

     total cpu time spent up to now is        9.2 secs

     Self-consistent Calculation

     iteration #  1     ecut=    25.00 Ry     beta= 0.70
     Davidson diagonalization with overlap
     ethr =  1.00E-06,  avg # of iterations =  3.0

     Threshold (ethr) on eigenvalues was too large:
     Diagonalizing with lowered threshold

     Davidson diagonalization with overlap
     ethr =  2.34E-09,  avg # of iterations =  3.0

     negative rho (up, down):  5.141E-03 0.000E+00

     total cpu time spent up to now is        9.7 secs

     total energy              =     -43.78898736 Ry
     Harris-Foulkes estimate   =     -43.78981639 Ry
     estimated scf accuracy    <       0.00000021 Ry

     iteration #  2     ecut=    25.00 Ry     beta= 0.70
     Davidson diagonalization with overlap
     ethr =  2.60E-09,  avg # of iterations =  1.0

     negative rho (up, down):  5.141E-03 0.000E+00

     total cpu time spent up to now is       10.0 secs

     total energy              =     -43.78898741 Ry
     Harris-Foulkes estimate   =     -43.78898738 Ry
     estimated scf accuracy    <       0.00000002 Ry

     iteration #  3     ecut=    25.00 Ry     beta= 0.70
     Davidson diagonalization with overlap
     ethr =  2.28E-10,  avg # of iterations =  2.0

     negative rho (up, down):  5.140E-03 0.000E+00

     total cpu time spent up to now is       10.3 secs

     End of self-consistent calculation

          k = 0.0000 0.0000 0.0000 (  7123 PWs)   bands (ev):

   -25.0217 -12.4076  -9.0484  -6.8912

     highest occupied level (ev):    -6.8912

!    total energy              =     -43.78898741 Ry
     Harris-Foulkes estimate   =     -43.78898741 Ry
     estimated scf accuracy    <          3.6E-09 Ry

     convergence has been achieved in   3 iterations

     negative rho (up, down):  5.140E-03 0.000E+00

     Forces acting on atoms (cartesian axes, Ry/au):

     atom    1 type  2   force =     0.00219355    0.02447358   -0.00584981
     atom    2 type  1   force =    -0.00348495   -0.01036196   -0.02837411
     atom    3 type  1   force =     0.00129140   -0.01411162    0.03422393

     Total force =     0.054173     Total SCF correction =     0.000039

     Entering Dynamics:    iteration =     5
                           time      =   0.0048 pico-seconds


ATOMIC_POSITIONS (angstrom)
O        4.994066270   4.783669684   5.000952487
H        5.125980252   5.399619894   5.787687485
H        4.974548845   5.385541685   4.194821046


     kinetic energy (Ekin) =     0.00400631 Ry
     temperature           =   210.84828667 K 
     Ekin + Etot (const)   =   -43.78498110 Ry

     Linear momentum :   -0.0000000000   -0.0000000000   -0.0000000000

     Writing output data file h2o.save/
     Message from routine punch:
     wavefunctions written to file

     second order wave-functions extrapolation
     second order charge density extrapolation

     Check: negative core charge=   -0.000056

     negative rho (up, down):  5.234E-03 0.000E+00

     total cpu time spent up to now is       10.8 secs

     Self-consistent Calculation

     iteration #  1     ecut=    25.00 Ry     beta= 0.70
     Davidson diagonalization with overlap
     ethr =  1.00E-06,  avg # of iterations =  3.0

     Threshold (ethr) on eigenvalues was too large:
     Diagonalizing with lowered threshold

     Davidson diagonalization with overlap
     ethr =  5.03E-09,  avg # of iterations =  3.0

     negative rho (up, down):  5.235E-03 0.000E+00

     total cpu time spent up to now is       11.2 secs

     total energy              =     -43.79018320 Ry
     Harris-Foulkes estimate   =     -43.79162024 Ry
     estimated scf accuracy    <       0.00000055 Ry

     iteration #  2     ecut=    25.00 Ry     beta= 0.70
     Davidson diagonalization with overlap
     ethr =  6.86E-09,  avg # of iterations =  2.0

     negative rho (up, down):  5.234E-03 0.000E+00

     total cpu time spent up to now is       11.5 secs

     total energy              =     -43.79018328 Ry
     Harris-Foulkes estimate   =     -43.79018341 Ry
     estimated scf accuracy    <       0.00000029 Ry

     iteration #  3     ecut=    25.00 Ry     beta= 0.70
     Davidson diagonalization with overlap
     ethr =  3.63E-09,  avg # of iterations =  2.0

     negative rho (up, down):  5.234E-03 0.000E+00

     total cpu time spent up to now is       11.8 secs

     total energy              =     -43.79018336 Ry
     Harris-Foulkes estimate   =     -43.79018336 Ry
     estimated scf accuracy    <       0.00000003 Ry

     iteration #  4     ecut=    25.00 Ry     beta= 0.70
     Davidson diagonalization with overlap
     ethr =  3.52E-10,  avg # of iterations =  2.0

     negative rho (up, down):  5.234E-03 0.000E+00

     total cpu time spent up to now is       12.1 secs

     End of self-consistent calculation

          k = 0.0000 0.0000 0.0000 (  7123 PWs)   bands (ev):

   -25.1665 -12.5439  -9.0575  -6.9226

     highest occupied level (ev):    -6.9226

!    total energy              =     -43.79018336 Ry
     Harris-Foulkes estimate   =     -43.79018336 Ry
     estimated scf accuracy    <          1.7E-10 Ry

     convergence has been achieved in   4 iterations

     negative rho (up, down):  5.234E-03 0.000E+00

     Forces acting on atoms (cartesian axes, Ry/au):

     atom    1 type  2   force =     0.00120270    0.00046962    0.00187800
     atom    2 type  1   force =    -0.00220601   -0.00120363   -0.01530633
     atom    3 type  1   force =     0.00100330    0.00073401    0.01342832

     Total force =     0.020680     Total SCF correction =     0.000011

     Entering Dynamics:    iteration =     6
                           time      =   0.0058 pico-seconds


ATOMIC_POSITIONS (angstrom)
O        4.992865886   4.784988292   5.000962957
H        5.149404994   5.391740965   5.772258483
H        4.970179643   5.372488315   4.210083848


     kinetic energy (Ekin) =     0.00507983 Ry
     temperature           =   267.34687332 K 
     Ekin + Etot (const)   =   -43.78510353 Ry

     Linear momentum :    0.0000000000   -0.0000000000   -0.0000000000

     Writing output data file h2o.save/
     Message from routine punch:
     wavefunctions written to file

     second order wave-functions extrapolation
     second order charge density extrapolation

     Check: negative core charge=   -0.000056

     negative rho (up, down):  5.350E-03 0.000E+00

     total cpu time spent up to now is       12.6 secs

     Self-consistent Calculation

     iteration #  1     ecut=    25.00 Ry     beta= 0.70
     Davidson diagonalization with overlap
     ethr =  1.00E-06,  avg # of iterations =  3.0

     Threshold (ethr) on eigenvalues was too large:
     Diagonalizing with lowered threshold

     Davidson diagonalization with overlap
     ethr =  7.80E-09,  avg # of iterations =  2.0

     negative rho (up, down):  5.343E-03 0.000E+00

     total cpu time spent up to now is       13.1 secs

     total energy              =     -43.79003074 Ry
     Harris-Foulkes estimate   =     -43.79165459 Ry
     estimated scf accuracy    <       0.00000056 Ry

     iteration #  2     ecut=    25.00 Ry     beta= 0.70
     Davidson diagonalization with overlap
     ethr =  7.02E-09,  avg # of iterations =  1.0

     negative rho (up, down):  5.342E-03 0.000E+00

     total cpu time spent up to now is       13.4 secs

     total energy              =     -43.79003083 Ry
     Harris-Foulkes estimate   =     -43.79003078 Ry
     estimated scf accuracy    <       0.00000004 Ry

     iteration #  3     ecut=    25.00 Ry     beta= 0.70
     Davidson diagonalization with overlap
     ethr =  5.26E-10,  avg # of iterations =  2.0

     negative rho (up, down):  5.342E-03 0.000E+00

     total cpu time spent up to now is       13.6 secs

     End of self-consistent calculation

          k = 0.0000 0.0000 0.0000 (  7123 PWs)   bands (ev):

   -25.3436 -12.6933  -9.0808  -6.9604

     highest occupied level (ev):    -6.9604

!    total energy              =     -43.79003084 Ry
     Harris-Foulkes estimate   =     -43.79003084 Ry
     estimated scf accuracy    <          3.9E-09 Ry

     convergence has been achieved in   3 iterations

     negative rho (up, down):  5.342E-03 0.000E+00

     Forces acting on atoms (cartesian axes, Ry/au):

     atom    1 type  2   force =    -0.00081128   -0.02842578    0.01123922
     atom    2 type  1   force =     0.00063715    0.00999213    0.00189351
     atom    3 type  1   force =     0.00017413    0.01843365   -0.01313273

     Total force =     0.039384     Total SCF correction =     0.000028

     Entering Dynamics:    iteration =     7
                           time      =   0.0068 pico-seconds


ATOMIC_POSITIONS (angstrom)
O        4.991653726   4.785894279   5.001136572
H        5.172976555   5.386164524   5.757265804
H        4.965850566   5.363682615   4.222320473


     kinetic energy (Ekin) =     0.00491679 Ry
     temperature           =   258.76652793 K 
     Ekin + Etot (const)   =   -43.78511404 Ry

     Linear momentum :   -0.0000000000   -0.0000000000   -0.0000000000

     Writing output data file h2o.save/
     Message from routine punch:
     wavefunctions written to file

     second order wave-functions extrapolation
     second order charge density extrapolation

     Check: negative core charge=   -0.000056

     negative rho (up, down):  5.452E-03 0.000E+00

     total cpu time spent up to now is       14.1 secs

     Self-consistent Calculation

     iteration #  1     ecut=    25.00 Ry     beta= 0.70
     Davidson diagonalization with overlap
     ethr =  1.00E-06,  avg # of iterations =  3.0

     Threshold (ethr) on eigenvalues was too large:
     Diagonalizing with lowered threshold

     Davidson diagonalization with overlap
     ethr =  7.15E-08,  avg # of iterations =  1.0

     negative rho (up, down):  5.426E-03 0.000E+00

     total cpu time spent up to now is       14.6 secs

     total energy              =     -43.78868880 Ry
     Harris-Foulkes estimate   =     -43.79002529 Ry
     estimated scf accuracy    <       0.00000567 Ry

     iteration #  2     ecut=    25.00 Ry     beta= 0.70
     Davidson diagonalization with overlap
     ethr =  7.08E-08,  avg # of iterations =  2.0

     negative rho (up, down):  5.431E-03 0.000E+00

     total cpu time spent up to now is       14.9 secs

     total energy              =     -43.78868974 Ry
     Harris-Foulkes estimate   =     -43.78869200 Ry
     estimated scf accuracy    <       0.00000463 Ry

     iteration #  3     ecut=    25.00 Ry     beta= 0.70
     Davidson diagonalization with overlap
     ethr =  5.79E-08,  avg # of iterations =  2.0

     negative rho (up, down):  5.429E-03 0.000E+00

     total cpu time spent up to now is       15.2 secs

     total energy              =     -43.78869088 Ry
     Harris-Foulkes estimate   =     -43.78869081 Ry
     estimated scf accuracy    <       0.00000012 Ry

     iteration #  4     ecut=    25.00 Ry     beta= 0.70
     Davidson diagonalization with overlap
     ethr =  1.51E-09,  avg # of iterations =  2.0

     negative rho (up, down):  5.428E-03 0.000E+00

     total cpu time spent up to now is       15.5 secs

     End of self-consistent calculation

          k = 0.0000 0.0000 0.0000 (  7123 PWs)   bands (ev):

   -25.4896 -12.8018  -9.1109  -6.9918

     highest occupied level (ev):    -6.9918

!    total energy              =     -43.78869089 Ry
     Harris-Foulkes estimate   =     -43.78869089 Ry
     estimated scf accuracy    <          1.8E-09 Ry

     convergence has been achieved in   4 iterations

     negative rho (up, down):  5.428E-03 0.000E+00

     Forces acting on atoms (cartesian axes, Ry/au):

     atom    1 type  2   force =    -0.00325567   -0.05183325    0.01821200
     atom    2 type  1   force =     0.00414580    0.01945151    0.01714928
     atom    3 type  1   force =    -0.00089013    0.03238174   -0.03536128

     Total force =     0.077578     Total SCF correction =     0.000094

     Entering Dynamics:    iteration =     8
                           time      =   0.0077 pico-seconds


ATOMIC_POSITIONS (angstrom)
O        4.990394308   4.786047871   5.001574546
H        5.197503433   5.385070300   5.746224839
H        4.961316376   5.362338646   4.226408790


     kinetic energy (Ekin) =     0.00369502 Ry
     temperature           =   194.46555547 K 
     Ekin + Etot (const)   =   -43.78499587 Ry

     Linear momentum :   -0.0000000000   -0.0000000000    0.0000000000

     Writing output data file h2o.save/
     Message from routine punch:
     wavefunctions written to file

     second order wave-functions extrapolation
     second order charge density extrapolation

     Check: negative core charge=   -0.000056

     negative rho (up, down):  5.472E-03 0.000E+00

     total cpu time spent up to now is       16.0 secs

     Self-consistent Calculation

     iteration #  1     ecut=    25.00 Ry     beta= 0.70
     Davidson diagonalization with overlap
     ethr =  1.00E-06,  avg # of iterations =  3.0

     negative rho (up, down):  5.449E-03 0.000E+00

     total cpu time spent up to now is       16.3 secs

     total energy              =     -43.78810975 Ry
     Harris-Foulkes estimate   =     -43.78837255 Ry
     estimated scf accuracy    <       0.00001192 Ry

     iteration #  2     ecut=    25.00 Ry     beta= 0.70
     Davidson diagonalization with overlap
     ethr =  1.49E-07,  avg # of iterations =  2.0

     negative rho (up, down):  5.458E-03 0.000E+00

     total cpu time spent up to now is       16.6 secs

     total energy              =     -43.78811192 Ry
     Harris-Foulkes estimate   =     -43.78811601 Ry
     estimated scf accuracy    <       0.00000771 Ry

     iteration #  3     ecut=    25.00 Ry     beta= 0.70
     Davidson diagonalization with overlap
     ethr =  9.63E-08,  avg # of iterations =  2.0

     negative rho (up, down):  5.458E-03 0.000E+00

     total cpu time spent up to now is       16.9 secs

     total energy              =     -43.78811389 Ry
     Harris-Foulkes estimate   =     -43.78811390 Ry
     estimated scf accuracy    <       0.00000026 Ry

     iteration #  4     ecut=    25.00 Ry     beta= 0.70
     Davidson diagonalization with overlap
     ethr =  3.19E-09,  avg # of iterations =  2.0

     negative rho (up, down):  5.458E-03 0.000E+00

     total cpu time spent up to now is       17.2 secs

     End of self-consistent calculation

          k = 0.0000 0.0000 0.0000 (  7123 PWs)   bands (ev):

   -25.5408 -12.8184  -9.1378  -7.0033

     highest occupied level (ev):    -7.0033

!    total energy              =     -43.78811395 Ry
     Harris-Foulkes estimate   =     -43.78811394 Ry
     estimated scf accuracy    <          2.7E-09 Ry

     convergence has been achieved in   4 iterations

     negative rho (up, down):  5.458E-03 0.000E+00

     Forces acting on atoms (cartesian axes, Ry/au):

     atom    1 type  2   force =    -0.00498353   -0.05812095    0.01806812
     atom    2 type  1   force =     0.00650190    0.02289245    0.02387013
     atom    3 type  1   force =    -0.00151837    0.03522850   -0.04193825

     Total force =     0.088700     Total SCF correction =     0.000041

     Entering Dynamics:    iteration =     9
                           time      =   0.0087 pico-seconds


ATOMIC_POSITIONS (angstrom)
O        4.989062551   4.785357795   5.002274793
H        5.223528545   5.389251187   5.740684273
H        4.956432306   5.369112388   4.220833267


     kinetic energy (Ekin) =     0.00316973 Ry
     temperature           =   166.82013114 K 
     Ekin + Etot (const)   =   -43.78494422 Ry

     Linear momentum :    0.0000000000    0.0000000000    0.0000000000

     Writing output data file h2o.save/
     Message from routine punch:
     wavefunctions written to file

     second order wave-functions extrapolation
     second order charge density extrapolation

     Check: negative core charge=   -0.000056

     negative rho (up, down):  5.421E-03 0.000E+00

     total cpu time spent up to now is       17.7 secs

     Self-consistent Calculation

     iteration #  1     ecut=    25.00 Ry     beta= 0.70
     Davidson diagonalization with overlap
     ethr =  1.00E-06,  avg # of iterations =  3.0

     Threshold (ethr) on eigenvalues was too large:
     Diagonalizing with lowered threshold

     Davidson diagonalization with overlap
     ethr =  1.10E-08,  avg # of iterations =  2.0

     negative rho (up, down):  5.418E-03 0.000E+00

     total cpu time spent up to now is       18.1 secs

     total energy              =     -43.78924018 Ry
     Harris-Foulkes estimate   =     -43.78839357 Ry
     estimated scf accuracy    <       0.00000105 Ry

     iteration #  2     ecut=    25.00 Ry     beta= 0.70
     Davidson diagonalization with overlap
     ethr =  1.31E-08,  avg # of iterations =  2.0

     negative rho (up, down):  5.421E-03 0.000E+00

     total cpu time spent up to now is       18.5 secs

     total energy              =     -43.78924031 Ry
     Harris-Foulkes estimate   =     -43.78924060 Ry
     estimated scf accuracy    <       0.00000055 Ry

     iteration #  3     ecut=    25.00 Ry     beta= 0.70
     Davidson diagonalization with overlap
     ethr =  6.87E-09,  avg # of iterations =  2.0

     negative rho (up, down):  5.421E-03 0.000E+00

     total cpu time spent up to now is       18.8 secs

     total energy              =     -43.78924046 Ry
     Harris-Foulkes estimate   =     -43.78924047 Ry
     estimated scf accuracy    <       0.00000004 Ry

     iteration #  4     ecut=    25.00 Ry     beta= 0.70
     Davidson diagonalization with overlap
     ethr =  5.50E-10,  avg # of iterations =  2.0

     negative rho (up, down):  5.421E-03 0.000E+00

     total cpu time spent up to now is       19.1 secs

     End of self-consistent calculation

          k = 0.0000 0.0000 0.0000 (  7123 PWs)   bands (ev):

   -25.4745 -12.7284  -9.1561  -6.9900

     highest occupied level (ev):    -6.9900

!    total energy              =     -43.78924047 Ry
     Harris-Foulkes estimate   =     -43.78924047 Ry
     estimated scf accuracy    <          2.2E-10 Ry

     convergence has been achieved in   4 iterations

     negative rho (up, down):  5.421E-03 0.000E+00

     Forces acting on atoms (cartesian axes, Ry/au):

     atom    1 type  2   force =    -0.00452557   -0.04309266    0.01028306
     atom    2 type  1   force =     0.00582392    0.01821893    0.01905142
     atom    3 type  1   force =    -0.00129834    0.02487373   -0.02933448

     Total force =     0.064753     Total SCF correction =     0.000016

     Entering Dynamics:    iteration =    10
                           time      =   0.0097 pico-seconds


ATOMIC_POSITIONS (angstrom)
O        4.987665101   4.784042200   5.003124305
H        5.250895664   5.397630266   5.739533729
H        4.951249059   5.381617789   4.208498192


     kinetic energy (Ekin) =     0.00416943 Ry
     temperature           =   219.43329275 K 
     Ekin + Etot (const)   =   -43.78507104 Ry

     Linear momentum :   -0.0000000000   -0.0000000000    0.0000000000

     Writing output data file h2o.save/
     Message from routine punch:
     wavefunctions written to file

     second order wave-functions extrapolation
     second order charge density extrapolation

     Check: negative core charge=   -0.000056

     negative rho (up, down):  5.342E-03 0.000E+00

     total cpu time spent up to now is       19.6 secs

     Self-consistent Calculation

     iteration #  1     ecut=    25.00 Ry     beta= 0.70
     Davidson diagonalization with overlap
     ethr =  1.00E-06,  avg # of iterations =  3.0

     Threshold (ethr) on eigenvalues was too large:
     Diagonalizing with lowered threshold

     Davidson diagonalization with overlap
     ethr =  8.64E-09,  avg # of iterations =  2.0

     negative rho (up, down):  5.340E-03 0.000E+00

     total cpu time spent up to now is       20.0 secs

     total energy              =     -43.79049418 Ry
     Harris-Foulkes estimate   =     -43.78887258 Ry
     estimated scf accuracy    <       0.00000076 Ry

     iteration #  2     ecut=    25.00 Ry     beta= 0.70
     Davidson diagonalization with overlap
     ethr =  9.53E-09,  avg # of iterations =  2.0

     negative rho (up, down):  5.337E-03 0.000E+00

     total cpu time spent up to now is       20.3 secs

     total energy              =     -43.79049427 Ry
     Harris-Foulkes estimate   =     -43.79049434 Ry
     estimated scf accuracy    <       0.00000019 Ry

     iteration #  3     ecut=    25.00 Ry     beta= 0.70
     Davidson diagonalization with overlap
     ethr =  2.32E-09,  avg # of iterations =  2.0

     negative rho (up, down):  5.338E-03 0.000E+00

     total cpu time spent up to now is       20.6 secs

     total energy              =     -43.79049433 Ry
     Harris-Foulkes estimate   =     -43.79049435 Ry
     estimated scf accuracy    <       0.00000006 Ry

     iteration #  4     ecut=    25.00 Ry     beta= 0.70
     Davidson diagonalization with overlap
     ethr =  7.92E-10,  avg # of iterations =  2.0

     negative rho (up, down):  5.337E-03 0.000E+00

     total cpu time spent up to now is       20.9 secs

     End of self-consistent calculation

          k = 0.0000 0.0000 0.0000 (  7123 PWs)   bands (ev):

   -25.3239 -12.5632  -9.1682  -6.9592

     highest occupied level (ev):    -6.9592

!    total energy              =     -43.79049434 Ry
     Harris-Foulkes estimate   =     -43.79049434 Ry
     estimated scf accuracy    <          7.3E-10 Ry

     convergence has been achieved in   4 iterations

     negative rho (up, down):  5.337E-03 0.000E+00

     Forces acting on atoms (cartesian axes, Ry/au):

     atom    1 type  2   force =    -0.00155897   -0.01381836   -0.00031909
     atom    2 type  1   force =     0.00184829    0.00716764    0.00564840
     atom    3 type  1   force =    -0.00028932    0.00665072   -0.00532931

     Total force =     0.018785     Total SCF correction =     0.000056

     Entering Dynamics:    iteration =    11
                           time      =   0.0106 pico-seconds


ATOMIC_POSITIONS (angstrom)
O        4.986245022   4.782526021   5.003969185
H        5.278688684   5.407660985   5.739684749
H        4.945999144   5.395655716   4.194935083


     kinetic energy (Ekin) =     0.00529526 Ry
     temperature           =   278.68495030 K 
     Ekin + Etot (const)   =   -43.78519908 Ry

     Linear momentum :    0.0000000000   -0.0000000000    0.0000000000

     Writing output data file h2o.save/
     Message from routine punch:
     wavefunctions written to file

     second order wave-functions extrapolation
     second order charge density extrapolation

     Check: negative core charge=   -0.000056

     negative rho (up, down):  5.252E-03 0.000E+00

     total cpu time spent up to now is       21.4 secs

     Self-consistent Calculation

     iteration #  1     ecut=    25.00 Ry     beta= 0.70
     Davidson diagonalization with overlap
     ethr =  1.00E-06,  avg # of iterations =  3.0

     Threshold (ethr) on eigenvalues was too large:
     Diagonalizing with lowered threshold

     Davidson diagonalization with overlap
     ethr =  1.55E-08,  avg # of iterations =  1.0

     negative rho (up, down):  5.248E-03 0.000E+00

     total cpu time spent up to now is       21.8 secs

     total energy              =     -43.79020301 Ry
     Harris-Foulkes estimate   =     -43.78836927 Ry
     estimated scf accuracy    <       0.00000124 Ry

     iteration #  2     ecut=    25.00 Ry     beta= 0.70
     Davidson diagonalization with overlap
     ethr =  1.55E-08,  avg # of iterations =  2.0

     negative rho (up, down):  5.245E-03 0.000E+00

     total cpu time spent up to now is       22.2 secs

     total energy              =     -43.79020316 Ry
     Harris-Foulkes estimate   =     -43.79020329 Ry
     estimated scf accuracy    <       0.00000035 Ry

     iteration #  3     ecut=    25.00 Ry     beta= 0.70
     Davidson diagonalization with overlap
     ethr =  4.34E-09,  avg # of iterations =  2.0

     negative rho (up, down):  5.245E-03 0.000E+00

     total cpu time spent up to now is       22.5 secs

     total energy              =     -43.79020327 Ry
     Harris-Foulkes estimate   =     -43.79020330 Ry
     estimated scf accuracy    <       0.00000011 Ry

     iteration #  4     ecut=    25.00 Ry     beta= 0.70
     Davidson diagonalization with overlap
     ethr =  1.38E-09,  avg # of iterations =  2.0

     negative rho (up, down):  5.245E-03 0.000E+00

     total cpu time spent up to now is       22.8 secs

     End of self-consistent calculation

          k = 0.0000 0.0000 0.0000 (  7123 PWs)   bands (ev):

   -25.1543 -12.3797  -9.1802  -6.9243

     highest occupied level (ev):    -6.9243

!    total energy              =     -43.79020329 Ry
     Harris-Foulkes estimate   =     -43.79020329 Ry
     estimated scf accuracy    <          1.0E-09 Ry

     convergence has been achieved in   4 iterations

     negative rho (up, down):  5.245E-03 0.000E+00

     Forces acting on atoms (cartesian axes, Ry/au):

     atom    1 type  2   force =     0.00306560    0.01758063   -0.00875635
     atom    2 type  1   force =    -0.00399712   -0.00592599   -0.00982595
     atom    3 type  1   force =     0.00093152   -0.01165464    0.01858230

     Total force =     0.032012     Total SCF correction =     0.000065

     Entering Dynamics:    iteration =    12
                           time      =   0.0116 pico-seconds


ATOMIC_POSITIONS (angstrom)
O        4.984869443   4.781265037   5.004686961
H        5.305560648   5.416326177   5.737571574
H        4.940963879   5.407008062   4.185653898


     kinetic energy (Ekin) =     0.00502224 Ry
     temperature           =   264.31587796 K 
     Ekin + Etot (const)   =   -43.78518106 Ry

     Linear momentum :    0.0000000000   -0.0000000000    0.0000000000

     Writing output data file h2o.save/
     Message from routine punch:
     wavefunctions written to file

     second order wave-functions extrapolation
     second order charge density extrapolation

     Check: negative core charge=   -0.000056

     negative rho (up, down):  5.229E-03 0.000E+00

     total cpu time spent up to now is       23.3 secs

     Self-consistent Calculation

     iteration #  1     ecut=    25.00 Ry     beta= 0.70
     Davidson diagonalization with overlap
     ethr =  1.00E-06,  avg # of iterations =  3.0

     negative rho (up, down):  5.184E-03 0.000E+00

     total cpu time spent up to now is       23.6 secs

     total energy              =     -43.78878293 Ry
     Harris-Foulkes estimate   =     -43.78730703 Ry
     estimated scf accuracy    <       0.00000853 Ry

     iteration #  2     ecut=    25.00 Ry     beta= 0.70
     Davidson diagonalization with overlap
     ethr =  1.07E-07,  avg # of iterations =  2.0

     negative rho (up, down):  5.175E-03 0.000E+00

     total cpu time spent up to now is       23.9 secs

     total energy              =     -43.78878413 Ry
     Harris-Foulkes estimate   =     -43.78878427 Ry
     estimated scf accuracy    <       0.00000141 Ry

     iteration #  3     ecut=    25.00 Ry     beta= 0.70
     Davidson diagonalization with overlap
     ethr =  1.76E-08,  avg # of iterations =  2.0

     negative rho (up, down):  5.176E-03 0.000E+00

     total cpu time spent up to now is       24.2 secs

     total energy              =     -43.78878449 Ry
     Harris-Foulkes estimate   =     -43.78878477 Ry
     estimated scf accuracy    <       0.00000078 Ry

     iteration #  4     ecut=    25.00 Ry     beta= 0.70
     Davidson diagonalization with overlap
     ethr =  9.78E-09,  avg # of iterations =  2.0

     negative rho (up, down):  5.176E-03 0.000E+00

     total cpu time spent up to now is       24.6 secs

     total energy              =     -43.78878467 Ry
     Harris-Foulkes estimate   =     -43.78878467 Ry
     estimated scf accuracy    <       0.00000001 Ry

     iteration #  5     ecut=    25.00 Ry     beta= 0.70
     Davidson diagonalization with overlap
     ethr =  1.86E-10,  avg # of iterations =  2.0

     negative rho (up, down):  5.176E-03 0.000E+00

     total cpu time spent up to now is       24.8 secs

     End of self-consistent calculation

          k = 0.0000 0.0000 0.0000 (  7123 PWs)   bands (ev):

   -25.0267 -12.2312  -9.1978  -6.8982

     highest occupied level (ev):    -6.8982

!    total energy              =     -43.78878468 Ry
     Harris-Foulkes estimate   =     -43.78878467 Ry
     estimated scf accuracy    <          3.7E-10 Ry

     convergence has been achieved in   5 iterations

     negative rho (up, down):  5.176E-03 0.000E+00

     Forces acting on atoms (cartesian axes, Ry/au):

     atom    1 type  2   force =     0.00777803    0.04144620   -0.01296516
     atom    2 type  1   force =    -0.00954942   -0.01684738   -0.02147035
     atom    3 type  1   force =     0.00177139   -0.02459883    0.03443550

     Total force =     0.067649     Total SCF correction =     0.000029

     Entering Dynamics:    iteration =    13
                           time      =   0.0126 pico-seconds


ATOMIC_POSITIONS (angstrom)
O        4.983606766   4.780605675   5.005216538
H        5.330232137   5.421109225   5.730510982
H        4.936336797   5.412692095   4.184307693


     kinetic energy (Ekin) =     0.00370270 Ry
     temperature           =   194.86997943 K 
     Ekin + Etot (const)   =   -43.78508197 Ry

     Linear momentum :    0.0000000000    0.0000000000   -0.0000000000

     Writing output data file h2o.save/
     Message from routine punch:
     wavefunctions written to file

     second order wave-functions extrapolation
     second order charge density extrapolation

     Check: negative core charge=   -0.000056

     negative rho (up, down):  5.170E-03 0.000E+00

     total cpu time spent up to now is       25.3 secs

     Self-consistent Calculation

     iteration #  1     ecut=    25.00 Ry     beta= 0.70
     Davidson diagonalization with overlap
     ethr =  1.00E-06,  avg # of iterations =  3.0

     Threshold (ethr) on eigenvalues was too large:
     Diagonalizing with lowered threshold

     Davidson diagonalization with overlap
     ethr =  3.88E-08,  avg # of iterations =  1.0

     negative rho (up, down):  5.150E-03 0.000E+00

     total cpu time spent up to now is       25.7 secs

     total energy              =     -43.78792222 Ry
     Harris-Foulkes estimate   =     -43.78716804 Ry
     estimated scf accuracy    <       0.00000309 Ry

     iteration #  2     ecut=    25.00 Ry     beta= 0.70
     Davidson diagonalization with overlap
     ethr =  3.86E-08,  avg # of iterations =  2.0

     negative rho (up, down):  5.152E-03 0.000E+00

     total cpu time spent up to now is       26.1 secs

     total energy              =     -43.78792256 Ry
     Harris-Foulkes estimate   =     -43.78792292 Ry
     estimated scf accuracy    <       0.00000086 Ry

     iteration #  3     ecut=    25.00 Ry     beta= 0.70
     Davidson diagonalization with overlap
     ethr =  1.08E-08,  avg # of iterations =  2.0

     negative rho (up, down):  5.151E-03 0.000E+00

     total cpu time spent up to now is       26.4 secs

     total energy              =     -43.78792283 Ry
     Harris-Foulkes estimate   =     -43.78792291 Ry
     estimated scf accuracy    <       0.00000030 Ry

     iteration #  4     ecut=    25.00 Ry     beta= 0.70
     Davidson diagonalization with overlap
     ethr =  3.75E-09,  avg # of iterations =  2.0

     negative rho (up, down):  5.151E-03 0.000E+00

     total cpu time spent up to now is       26.7 secs

     End of self-consistent calculation

          k = 0.0000 0.0000 0.0000 (  7123 PWs)   bands (ev):

   -24.9800 -12.1525  -9.2249  -6.8895

     highest occupied level (ev):    -6.8895

!    total energy              =     -43.78792289 Ry
     Harris-Foulkes estimate   =     -43.78792289 Ry
     estimated scf accuracy    <          3.2E-09 Ry

     convergence has been achieved in   4 iterations

     negative rho (up, down):  5.151E-03 0.000E+00

     Forces acting on atoms (cartesian axes, Ry/au):

     atom    1 type  2   force =     0.01109341    0.05241675   -0.01266560
     atom    2 type  1   force =    -0.01289736   -0.02283515   -0.02595643
     atom    3 type  1   force =     0.00180395   -0.02958160    0.03862203

     Total force =     0.082234     Total SCF correction =     0.000125

     Entering Dynamics:    iteration =    14
                           time      =   0.0135 pico-seconds


ATOMIC_POSITIONS (angstrom)
O        4.982505119   4.780707178   5.005562265
H        5.351931685   5.420630362   5.717469243
H        4.932125399   5.411559634   4.191861172


     kinetic energy (Ekin) =     0.00288682 Ry
     temperature           =   151.93055596 K 
     Ekin + Etot (const)   =   -43.78503608 Ry

     Linear momentum :    0.0000000000    0.0000000000   -0.0000000000

     Writing output data file h2o.save/
     Message from routine punch:
     wavefunctions written to file

     second order wave-functions extrapolation
     second order charge density extrapolation

     Check: negative core charge=   -0.000056

     negative rho (up, down):  5.181E-03 0.000E+00

     total cpu time spent up to now is       27.1 secs

     Self-consistent Calculation

     iteration #  1     ecut=    25.00 Ry     beta= 0.70
     Davidson diagonalization with overlap
     ethr =  1.00E-06,  avg # of iterations =  3.0

     Threshold (ethr) on eigenvalues was too large:
     Diagonalizing with lowered threshold

     Davidson diagonalization with overlap
     ethr =  7.24E-09,  avg # of iterations =  2.0

     negative rho (up, down):  5.175E-03 0.000E+00

     total cpu time spent up to now is       27.6 secs

     total energy              =     -43.78854660 Ry
     Harris-Foulkes estimate   =     -43.78870703 Ry
     estimated scf accuracy    <       0.00000062 Ry

     iteration #  2     ecut=    25.00 Ry     beta= 0.70
     Davidson diagonalization with overlap
     ethr =  7.69E-09,  avg # of iterations =  2.0

     negative rho (up, down):  5.177E-03 0.000E+00

     total cpu time spent up to now is       27.9 secs

     total energy              =     -43.78854667 Ry
     Harris-Foulkes estimate   =     -43.78854680 Ry
     estimated scf accuracy    <       0.00000028 Ry

     iteration #  3     ecut=    25.00 Ry     beta= 0.70
     Davidson diagonalization with overlap
     ethr =  3.52E-09,  avg # of iterations =  2.0

     negative rho (up, down):  5.176E-03 0.000E+00

     total cpu time spent up to now is       28.2 secs

     total energy              =     -43.78854676 Ry
     Harris-Foulkes estimate   =     -43.78854676 Ry
     estimated scf accuracy    <       0.00000005 Ry

     iteration #  4     ecut=    25.00 Ry     beta= 0.70
     Davidson diagonalization with overlap
     ethr =  5.69E-10,  avg # of iterations =  2.0

     negative rho (up, down):  5.176E-03 0.000E+00

     total cpu time spent up to now is       28.5 secs

     End of self-consistent calculation

          k = 0.0000 0.0000 0.0000 (  7123 PWs)   bands (ev):

   -25.0277 -12.1560  -9.2612  -6.9006

     highest occupied level (ev):    -6.9006

!    total energy              =     -43.78854677 Ry
     Harris-Foulkes estimate   =     -43.78854677 Ry
     estimated scf accuracy    <          3.1E-10 Ry

     convergence has been achieved in   4 iterations

     negative rho (up, down):  5.176E-03 0.000E+00

     Forces acting on atoms (cartesian axes, Ry/au):

     atom    1 type  2   force =     0.01192845    0.04862719   -0.00821714
     atom    2 type  1   force =    -0.01271845   -0.02271810   -0.02220540
     atom    3 type  1   force =     0.00078999   -0.02590908    0.03042254

     Total force =     0.073094     Total SCF correction =     0.000042

     Entering Dynamics:    iteration =    15
                           time      =   0.0145 pico-seconds


ATOMIC_POSITIONS (angstrom)
O        4.981576622   4.781514540   5.005788714
H        5.370700518   5.414916562   5.699310709
H        4.928096040   5.404456938   4.206424924


     kinetic energy (Ekin) =     0.00344245 Ry
     temperature           =   181.17292104 K 
     Ekin + Etot (const)   =   -43.78510432 Ry

     Linear momentum :    0.0000000000   -0.0000000000   -0.0000000000

     Writing output data file h2o.save/
     Message from routine punch:
     wavefunctions written to file

     second order wave-functions extrapolation
     second order charge density extrapolation

     Check: negative core charge=   -0.000056

     negative rho (up, down):  5.241E-03 0.000E+00

     total cpu time spent up to now is       29.0 secs

     Self-consistent Calculation

     iteration #  1     ecut=    25.00 Ry     beta= 0.70
     Davidson diagonalization with overlap
     ethr =  1.00E-06,  avg # of iterations =  3.0

     Threshold (ethr) on eigenvalues was too large:
     Diagonalizing with lowered threshold

     Davidson diagonalization with overlap
     ethr =  5.14E-09,  avg # of iterations =  3.0

     negative rho (up, down):  5.246E-03 0.000E+00

     total cpu time spent up to now is       29.4 secs

     total energy              =     -43.78985475 Ry
     Harris-Foulkes estimate   =     -43.79080138 Ry
     estimated scf accuracy    <       0.00000067 Ry

     iteration #  2     ecut=    25.00 Ry     beta= 0.70
     Davidson diagonalization with overlap
     ethr =  8.35E-09,  avg # of iterations =  2.0

     negative rho (up, down):  5.245E-03 0.000E+00

     total cpu time spent up to now is       29.7 secs

     total energy              =     -43.78985487 Ry
     Harris-Foulkes estimate   =     -43.78985514 Ry
     estimated scf accuracy    <       0.00000057 Ry

     iteration #  3     ecut=    25.00 Ry     beta= 0.70
     Davidson diagonalization with overlap
     ethr =  7.18E-09,  avg # of iterations =  2.0

     negative rho (up, down):  5.245E-03 0.000E+00

     total cpu time spent up to now is       30.1 secs

     total energy              =     -43.78985500 Ry
     Harris-Foulkes estimate   =     -43.78985501 Ry
     estimated scf accuracy    <       0.00000001 Ry

     iteration #  4     ecut=    25.00 Ry     beta= 0.70
     Davidson diagonalization with overlap
     ethr =  1.84E-10,  avg # of iterations =  2.0

     negative rho (up, down):  5.246E-03 0.000E+00

     total cpu time spent up to now is       30.3 secs

     End of self-consistent calculation

          k = 0.0000 0.0000 0.0000 (  7123 PWs)   bands (ev):

   -25.1600 -12.2334  -9.3032  -6.9291

     highest occupied level (ev):    -6.9291

!    total energy              =     -43.78985500 Ry
     Harris-Foulkes estimate   =     -43.78985500 Ry
     estimated scf accuracy    <          1.0E-10 Ry

     convergence has been achieved in   4 iterations

     negative rho (up, down):  5.246E-03 0.000E+00

     Forces acting on atoms (cartesian axes, Ry/au):

     atom    1 type  2   force =     0.00981191    0.03113592   -0.00023054
     atom    2 type  1   force =    -0.00846298   -0.01672804   -0.01104066
     atom    3 type  1   force =    -0.00134893   -0.01440788    0.01127121

     Total force =     0.043308     Total SCF correction =     0.000016

     Entering Dynamics:    iteration =    16
                           time      =   0.0155 pico-seconds


ATOMIC_POSITIONS (angstrom)
O        4.980790551   4.782773861   5.006011817
H        5.387519225   5.405348116   5.678608073
H        4.923755847   5.394034232   4.223585902


     kinetic energy (Ekin) =     0.00462481 Ry
     temperature           =   243.39964971 K 
     Ekin + Etot (const)   =   -43.78523019 Ry

     Linear momentum :    0.0000000000   -0.0000000000    0.0000000000

     Writing output data file h2o.save/
     Message from routine punch:
     wavefunctions written to file

     second order wave-functions extrapolation
     second order charge density extrapolation

     Check: negative core charge=   -0.000056

     negative rho (up, down):  5.337E-03 0.000E+00

     total cpu time spent up to now is       30.9 secs

     Self-consistent Calculation

     iteration #  1     ecut=    25.00 Ry     beta= 0.70
     Davidson diagonalization with overlap
     ethr =  1.00E-06,  avg # of iterations =  3.0

     Threshold (ethr) on eigenvalues was too large:
     Diagonalizing with lowered threshold

     Davidson diagonalization with overlap
     ethr =  1.19E-08,  avg # of iterations =  2.0

     negative rho (up, down):  5.342E-03 0.000E+00

     total cpu time spent up to now is       31.3 secs

     total energy              =     -43.79018420 Ry
     Harris-Foulkes estimate   =     -43.79159175 Ry
     estimated scf accuracy    <       0.00000099 Ry

     iteration #  2     ecut=    25.00 Ry     beta= 0.70
     Davidson diagonalization with overlap
     ethr =  1.24E-08,  avg # of iterations =  2.0

     negative rho (up, down):  5.340E-03 0.000E+00

     total cpu time spent up to now is       31.6 secs

     total energy              =     -43.79018436 Ry
     Harris-Foulkes estimate   =     -43.79018466 Ry
     estimated scf accuracy    <       0.00000062 Ry

     iteration #  3     ecut=    25.00 Ry     beta= 0.70
     Davidson diagonalization with overlap
     ethr =  7.71E-09,  avg # of iterations =  2.0

     negative rho (up, down):  5.341E-03 0.000E+00

     total cpu time spent up to now is       31.9 secs

     total energy              =     -43.79018451 Ry
     Harris-Foulkes estimate   =     -43.79018452 Ry
     estimated scf accuracy    <       0.00000004 Ry

     iteration #  4     ecut=    25.00 Ry     beta= 0.70
     Davidson diagonalization with overlap
     ethr =  4.51E-10,  avg # of iterations =  2.0

     negative rho (up, down):  5.341E-03 0.000E+00

     total cpu time spent up to now is       32.2 secs

     End of self-consistent calculation

          k = 0.0000 0.0000 0.0000 (  7123 PWs)   bands (ev):

   -25.3406 -12.3565  -9.3434  -6.9670

     highest occupied level (ev):    -6.9670

!    total energy              =     -43.79018452 Ry
     Harris-Foulkes estimate   =     -43.79018452 Ry
     estimated scf accuracy    <          2.5E-10 Ry

     convergence has been achieved in   4 iterations

     negative rho (up, down):  5.341E-03 0.000E+00

     Forces acting on atoms (cartesian axes, Ry/au):

     atom    1 type  2   force =     0.00509370    0.00439600    0.00956047
     atom    2 type  1   force =    -0.00070246   -0.00646351    0.00482962
     atom    3 type  1   force =    -0.00439125    0.00206752   -0.01439009

     Total force =     0.020806     Total SCF correction =     0.000020

     Entering Dynamics:    iteration =    17
                           time      =   0.0164 pico-seconds


ATOMIC_POSITIONS (angstrom)
O        4.980078419   4.784096994   5.006373697
H        5.404176065   5.394290280   5.659018327
H        4.918403779   5.384087944   4.237430970


     kinetic energy (Ekin) =     0.00490686 Ry
     temperature           =   258.24353447 K 
     Ekin + Etot (const)   =   -43.78527766 Ry

     Linear momentum :    0.0000000000   -0.0000000000    0.0000000000

     Writing output data file h2o.save/
     Message from routine punch:
     wavefunctions written to file

     second order wave-functions extrapolation
     second order charge density extrapolation

     Check: negative core charge=   -0.000056

     negative rho (up, down):  5.435E-03 0.000E+00

     total cpu time spent up to now is       32.7 secs

     Self-consistent Calculation

     iteration #  1     ecut=    25.00 Ry     beta= 0.70
     Davidson diagonalization with overlap
     ethr =  1.00E-06,  avg # of iterations =  3.0

     Threshold (ethr) on eigenvalues was too large:
     Diagonalizing with lowered threshold

     Davidson diagonalization with overlap
     ethr =  1.53E-08,  avg # of iterations =  1.0

     negative rho (up, down):  5.432E-03 0.000E+00

     total cpu time spent up to now is       33.1 secs

     total energy              =     -43.78904113 Ry
     Harris-Foulkes estimate   =     -43.79042690 Ry
     estimated scf accuracy    <       0.00000122 Ry

     iteration #  2     ecut=    25.00 Ry     beta= 0.70
     Davidson diagonalization with overlap
     ethr =  1.53E-08,  avg # of iterations =  1.0

     negative rho (up, down):  5.433E-03 0.000E+00

     total cpu time spent up to now is       33.5 secs

     total energy              =     -43.78904128 Ry
     Harris-Foulkes estimate   =     -43.78904118 Ry
     estimated scf accuracy    <       0.00000010 Ry

     iteration #  3     ecut=    25.00 Ry     beta= 0.70
     Davidson diagonalization with overlap
     ethr =  1.23E-09,  avg # of iterations =  1.0

     negative rho (up, down):  5.434E-03 0.000E+00

     total cpu time spent up to now is       33.7 secs

     End of self-consistent calculation

          k = 0.0000 0.0000 0.0000 (  7123 PWs)   bands (ev):

   -25.5076 -12.4802  -9.3708  -7.0014

     highest occupied level (ev):    -7.0014

!    total energy              =     -43.78904128 Ry
     Harris-Foulkes estimate   =     -43.78904128 Ry
     estimated scf accuracy    <          1.8E-09 Ry

     convergence has been achieved in   3 iterations

     negative rho (up, down):  5.434E-03 0.000E+00

     Forces acting on atoms (cartesian axes, Ry/au):

     atom    1 type  2   force =    -0.00088122   -0.02239465    0.01744196
     atom    2 type  1   force =     0.00837365    0.00473861    0.02041772
     atom    3 type  1   force =    -0.00749243    0.01765604   -0.03785968

     Total force =     0.055832     Total SCF correction =     0.000066

     Entering Dynamics:    iteration =    18
                           time      =   0.0174 pico-seconds


ATOMIC_POSITIONS (angstrom)
O        4.979353495   4.785095052   5.006988760
H        5.422762448   5.384324362   5.644133441
H        4.911325227   5.378210141   4.242552022


     kinetic energy (Ekin) =     0.00386536 Ry
     temperature           =   203.43028190 K 
     Ekin + Etot (const)   =   -43.78517592 Ry

     Linear momentum :    0.0000000000    0.0000000000    0.0000000000

     Writing output data file h2o.save/
     Message from routine punch:
     wavefunctions written to file

     second order wave-functions extrapolation
     second order charge density extrapolation

     Check: negative core charge=   -0.000056

     negative rho (up, down):  5.522E-03 0.000E+00

     total cpu time spent up to now is       34.2 secs

     Self-consistent Calculation

     iteration #  1     ecut=    25.00 Ry     beta= 0.70
     Davidson diagonalization with overlap
     ethr =  1.00E-06,  avg # of iterations =  3.0

     negative rho (up, down):  5.475E-03 0.000E+00

     total cpu time spent up to now is       34.5 secs

     total energy              =     -43.78800703 Ry
     Harris-Foulkes estimate   =     -43.78899565 Ry
     estimated scf accuracy    <       0.00003457 Ry

     iteration #  2     ecut=    25.00 Ry     beta= 0.70
     Davidson diagonalization with overlap
     ethr =  4.32E-07,  avg # of iterations =  2.0

     negative rho (up, down):  5.490E-03 0.000E+00

     total cpu time spent up to now is       34.8 secs

     total energy              =     -43.78801446 Ry
     Harris-Foulkes estimate   =     -43.78803047 Ry
     estimated scf accuracy    <       0.00003143 Ry

     iteration #  3     ecut=    25.00 Ry     beta= 0.70
     Davidson diagonalization with overlap
     ethr =  3.93E-07,  avg # of iterations =  2.0

     negative rho (up, down):  5.488E-03 0.000E+00

     total cpu time spent up to now is       35.2 secs

     total energy              =     -43.78802141 Ry
     Harris-Foulkes estimate   =     -43.78802134 Ry
     estimated scf accuracy    <       0.00000024 Ry

     iteration #  4     ecut=    25.00 Ry     beta= 0.70
     Davidson diagonalization with overlap
     ethr =  2.98E-09,  avg # of iterations =  2.0

     negative rho (up, down):  5.488E-03 0.000E+00

     total cpu time spent up to now is       35.4 secs

     End of self-consistent calculation

          k = 0.0000 0.0000 0.0000 (  7123 PWs)   bands (ev):

   -25.5904 -12.5546  -9.3742  -7.0181

     highest occupied level (ev):    -7.0181

!    total energy              =     -43.78802149 Ry
     Harris-Foulkes estimate   =     -43.78802148 Ry
     estimated scf accuracy    <          6.8E-09 Ry

     convergence has been achieved in   4 iterations

     negative rho (up, down):  5.488E-03 0.000E+00

     Forces acting on atoms (cartesian axes, Ry/au):

     atom    1 type  2   force =    -0.00579161   -0.03710822    0.01857261
     atom    2 type  1   force =     0.01497586    0.01231216    0.02943287
     atom    3 type  1   force =    -0.00918424    0.02479606   -0.04800548

     Total force =     0.077469     Total SCF correction =     0.000027

     Entering Dynamics:    iteration =    19
                           time      =   0.0184 pico-seconds


ATOMIC_POSITIONS (angstrom)
O        4.978544502   4.785554459   5.007873417
H        5.444799721   5.377195537   5.636030776
H        4.902130348   5.378046100   4.236611161


     kinetic energy (Ekin) =     0.00295202 Ry
     temperature           =   155.36211288 K 
     Ekin + Etot (const)   =   -43.78506947 Ry

     Linear momentum :   -0.0000000000    0.0000000000    0.0000000000

     Writing output data file h2o.save/
     Message from routine punch:
     wavefunctions written to file

     second order wave-functions extrapolation
     second order charge density extrapolation

     Check: negative core charge=   -0.000056

     negative rho (up, down):  5.492E-03 0.000E+00

     total cpu time spent up to now is       35.9 secs

     Self-consistent Calculation

     iteration #  1     ecut=    25.00 Ry     beta= 0.70
     Davidson diagonalization with overlap
     ethr =  1.00E-06,  avg # of iterations =  3.0

     Threshold (ethr) on eigenvalues was too large:
     Diagonalizing with lowered threshold

     Davidson diagonalization with overlap
     ethr =  2.65E-08,  avg # of iterations =  2.0

     negative rho (up, down):  5.481E-03 0.000E+00

     total cpu time spent up to now is       36.4 secs

     total energy              =     -43.78869110 Ry
     Harris-Foulkes estimate   =     -43.78861576 Ry
     estimated scf accuracy    <       0.00000248 Ry

     iteration #  2     ecut=    25.00 Ry     beta= 0.70
     Davidson diagonalization with overlap
     ethr =  3.10E-08,  avg # of iterations =  2.0

     negative rho (up, down):  5.484E-03 0.000E+00

     total cpu time spent up to now is       36.7 secs

     total energy              =     -43.78869147 Ry
     Harris-Foulkes estimate   =     -43.78869227 Ry
     estimated scf accuracy    <       0.00000152 Ry

     iteration #  3     ecut=    25.00 Ry     beta= 0.70
     Davidson diagonalization with overlap
     ethr =  1.91E-08,  avg # of iterations =  2.0

     negative rho (up, down):  5.484E-03 0.000E+00

     total cpu time spent up to now is       37.0 secs

     total energy              =     -43.78869188 Ry
     Harris-Foulkes estimate   =     -43.78869188 Ry
     estimated scf accuracy    <       0.00000007 Ry

     iteration #  4     ecut=    25.00 Ry     beta= 0.70
     Davidson diagonalization with overlap
     ethr =  9.20E-10,  avg # of iterations =  2.0

     negative rho (up, down):  5.484E-03 0.000E+00

     total cpu time spent up to now is       37.3 secs

     End of self-consistent calculation

          k = 0.0000 0.0000 0.0000 (  7123 PWs)   bands (ev):

   -25.5501 -12.5502  -9.3486  -7.0095

     highest occupied level (ev):    -7.0095

!    total energy              =     -43.78869190 Ry
     Harris-Foulkes estimate   =     -43.78869190 Ry
     estimated scf accuracy    <          4.9E-10 Ry

     convergence has been achieved in   4 iterations

     negative rho (up, down):  5.484E-03 0.000E+00

     Forces acting on atoms (cartesian axes, Ry/au):

     atom    1 type  2   force =    -0.00728436   -0.03238685    0.01145002
     atom    2 type  1   force =     0.01545086    0.01281713    0.02745865
     atom    3 type  1   force =    -0.00816650    0.01956973   -0.03890867

     Total force =     0.065982     Total SCF correction =     0.000032

     Entering Dynamics:    iteration =    20
                           time      =   0.0194 pico-seconds


ATOMIC_POSITIONS (angstrom)
O        4.977629772   4.785543747   5.008924279
H        5.470397339   5.373020165   5.634255414
H        4.891053661   5.382391515   4.221704567


     kinetic energy (Ekin) =     0.00355437 Ry
     temperature           =   187.06322972 K 
     Ekin + Etot (const)   =   -43.78513753 Ry

     Linear momentum :   -0.0000000000    0.0000000000   -0.0000000000

     Writing output data file h2o.save/
     Message from routine punch:
     wavefunctions written to file

     second order wave-functions extrapolation
     second order charge density extrapolation

     Check: negative core charge=   -0.000056

     negative rho (up, down):  5.434E-03 0.000E+00

     total cpu time spent up to now is       37.8 secs

     Self-consistent Calculation

     iteration #  1     ecut=    25.00 Ry     beta= 0.70
     Davidson diagonalization with overlap
     ethr =  1.00E-06,  avg # of iterations =  3.0

     Threshold (ethr) on eigenvalues was too large:
     Diagonalizing with lowered threshold

     Davidson diagonalization with overlap
     ethr =  8.91E-09,  avg # of iterations =  2.0

     negative rho (up, down):  5.430E-03 0.000E+00

     total cpu time spent up to now is       38.2 secs

     total energy              =     -43.79015953 Ry
     Harris-Foulkes estimate   =     -43.78927600 Ry
     estimated scf accuracy    <       0.00000075 Ry

     iteration #  2     ecut=    25.00 Ry     beta= 0.70
     Davidson diagonalization with overlap
     ethr =  9.39E-09,  avg # of iterations =  2.0

     negative rho (up, down):  5.431E-03 0.000E+00

     total cpu time spent up to now is       38.5 secs

     total energy              =     -43.79015959 Ry
     Harris-Foulkes estimate   =     -43.79015963 Ry
     estimated scf accuracy    <       0.00000011 Ry

     iteration #  3     ecut=    25.00 Ry     beta= 0.70
     Davidson diagonalization with overlap
     ethr =  1.42E-09,  avg # of iterations =  2.0

     negative rho (up, down):  5.430E-03 0.000E+00

     total cpu time spent up to now is       38.8 secs

     total energy              =     -43.79015962 Ry
     Harris-Foulkes estimate   =     -43.79015965 Ry
     estimated scf accuracy    <       0.00000006 Ry

     iteration #  4     ecut=    25.00 Ry     beta= 0.70
     Davidson diagonalization with overlap
     ethr =  7.94E-10,  avg # of iterations =  2.0

     negative rho (up, down):  5.431E-03 0.000E+00

     total cpu time spent up to now is       39.1 secs

     End of self-consistent calculation

          k = 0.0000 0.0000 0.0000 (  7123 PWs)   bands (ev):

   -25.4058 -12.4758  -9.2992  -6.9793

     highest occupied level (ev):    -6.9793

!    total energy              =     -43.79015964 Ry
     Harris-Foulkes estimate   =     -43.79015964 Ry
     estimated scf accuracy    <          7.9E-10 Ry

     convergence has been achieved in   4 iterations

     negative rho (up, down):  5.431E-03 0.000E+00

     Forces acting on atoms (cartesian axes, Ry/au):

     atom    1 type  2   force =    -0.00442727   -0.01194496    0.00001996
     atom    2 type  1   force =     0.00893738    0.00645453    0.01547817
     atom    3 type  1   force =    -0.00451012    0.00549043   -0.01549813

     Total force =     0.028532     Total SCF correction =     0.000053

     Entering Dynamics:    iteration =    21
                           time      =   0.0203 pico-seconds


ATOMIC_POSITIONS (angstrom)
O        4.976650776   4.785359646   5.009975431
H        5.498054401   5.370332112   5.636046690
H        4.878937706   5.388002092   4.203226735


     kinetic energy (Ekin) =     0.00488195 Ry
     temperature           =   256.93283085 K 
     Ekin + Etot (const)   =   -43.78527768 Ry

     Linear momentum :   -0.0000000000   -0.0000000000    0.0000000000

     Writing output data file h2o.save/
     Message from routine punch:
     wavefunctions written to file

     second order wave-functions extrapolation
     second order charge density extrapolation

     Check: negative core charge=   -0.000056

     negative rho (up, down):  5.360E-03 0.000E+00

     total cpu time spent up to now is       39.6 secs

     Self-consistent Calculation

     iteration #  1     ecut=    25.00 Ry     beta= 0.70
     Davidson diagonalization with overlap
     ethr =  1.00E-06,  avg # of iterations =  3.0

     Threshold (ethr) on eigenvalues was too large:
     Diagonalizing with lowered threshold

     Davidson diagonalization with overlap
     ethr =  1.66E-08,  avg # of iterations =  1.0

     negative rho (up, down):  5.360E-03 0.000E+00

     total cpu time spent up to now is       40.0 secs

     total energy              =     -43.79045086 Ry
     Harris-Foulkes estimate   =     -43.78920951 Ry
     estimated scf accuracy    <       0.00000134 Ry

     iteration #  2     ecut=    25.00 Ry     beta= 0.70
     Davidson diagonalization with overlap
     ethr =  1.67E-08,  avg # of iterations =  2.0

     negative rho (up, down):  5.357E-03 0.000E+00

     total cpu time spent up to now is       40.4 secs

     total energy              =     -43.79045100 Ry
     Harris-Foulkes estimate   =     -43.79045121 Ry
     estimated scf accuracy    <       0.00000044 Ry

     iteration #  3     ecut=    25.00 Ry     beta= 0.70
     Davidson diagonalization with overlap
     ethr =  5.51E-09,  avg # of iterations =  2.0

     negative rho (up, down):  5.358E-03 0.000E+00

     total cpu time spent up to now is       40.7 secs

     total energy              =     -43.79045112 Ry
     Harris-Foulkes estimate   =     -43.79045116 Ry
     estimated scf accuracy    <       0.00000011 Ry

     iteration #  4     ecut=    25.00 Ry     beta= 0.70
     Davidson diagonalization with overlap
     ethr =  1.33E-09,  avg # of iterations =  2.0

     negative rho (up, down):  5.358E-03 0.000E+00

     total cpu time spent up to now is       41.0 secs

[...]

     End of self-consistent calculation

          k = 0.0000 0.0000 0.0000 (  7123 PWs)   bands (ev):

   -25.1051 -12.4808  -9.0557  -6.9131

     highest occupied level (ev):    -6.9131

!    total energy              =     -43.78961666 Ry
     Harris-Foulkes estimate   =     -43.78961666 Ry
     estimated scf accuracy    <          1.0E-09 Ry

     convergence has been achieved in   4 iterations

     negative rho (up, down):  5.125E-03 0.000E+00

     Forces acting on atoms (cartesian axes, Ry/au):

     atom    1 type  2   force =    -0.00555950    0.00208574   -0.01300336
     atom    2 type  1   force =    -0.01603854    0.01007181    0.00229656
     atom    3 type  1   force =     0.02159804   -0.01215755    0.01070680

     Total force =     0.036017     Total SCF correction =     0.000064

     Entering Dynamics:    iteration =    95
                           time      =   0.0919 pico-seconds


ATOMIC_POSITIONS (angstrom)
O        4.998933129   4.859855328   5.069173269
H        5.705489735   4.367165960   4.510140154
H        4.317780187   5.208583286   4.389394607


     kinetic energy (Ekin) =     0.00476007 Ry
     temperature           =   250.51823888 K 
     Ekin + Etot (const)   =   -43.78485659 Ry

     Linear momentum :   -0.0000000000   -0.0000000000   -0.0000000000

     Writing output data file h2o.save/
     Message from routine punch:
     wavefunctions written to file

     second order wave-functions extrapolation
     second order charge density extrapolation

     Check: negative core charge=   -0.000055

     negative rho (up, down):  5.064E-03 0.000E+00

     total cpu time spent up to now is      174.6 secs

     Self-consistent Calculation

     iteration #  1     ecut=    25.00 Ry     beta= 0.70
     Davidson diagonalization with overlap
     ethr =  1.00E-06,  avg # of iterations =  3.0

     negative rho (up, down):  5.078E-03 0.000E+00

     total cpu time spent up to now is      174.9 secs

     total energy              =     -43.78829792 Ry
     Harris-Foulkes estimate   =     -43.78708109 Ry
     estimated scf accuracy    <       0.00001631 Ry

     iteration #  2     ecut=    25.00 Ry     beta= 0.70
     Davidson diagonalization with overlap
     ethr =  2.04E-07,  avg # of iterations =  2.0

     negative rho (up, down):  5.067E-03 0.000E+00

     total cpu time spent up to now is      175.2 secs

     total energy              =     -43.78830083 Ry
     Harris-Foulkes estimate   =     -43.78830876 Ry
     estimated scf accuracy    <       0.00001587 Ry

     iteration #  3     ecut=    25.00 Ry     beta= 0.70
     Davidson diagonalization with overlap
     ethr =  1.98E-07,  avg # of iterations =  2.0

     negative rho (up, down):  5.067E-03 0.000E+00

     total cpu time spent up to now is      175.5 secs

     total energy              =     -43.78830435 Ry
     Harris-Foulkes estimate   =     -43.78830440 Ry
     estimated scf accuracy    <       0.00000021 Ry

     iteration #  4     ecut=    25.00 Ry     beta= 0.70
     Davidson diagonalization with overlap
     ethr =  2.64E-09,  avg # of iterations =  2.0

     negative rho (up, down):  5.068E-03 0.000E+00

     total cpu time spent up to now is      175.8 secs

     End of self-consistent calculation

          k = 0.0000 0.0000 0.0000 (  7123 PWs)   bands (ev):

   -24.9907 -12.3849  -9.0379  -6.8882

     highest occupied level (ev):    -6.8882

!    total energy              =     -43.78830439 Ry
     Harris-Foulkes estimate   =     -43.78830440 Ry
     estimated scf accuracy    <          4.5E-09 Ry

     convergence has been achieved in   4 iterations

     negative rho (up, down):  5.068E-03 0.000E+00

     Forces acting on atoms (cartesian axes, Ry/au):

     atom    1 type  2   force =     0.00278184   -0.00517226   -0.02958257
     atom    2 type  1   force =    -0.03167848    0.02122252    0.01358402
     atom    3 type  1   force =     0.02889664   -0.01605026    0.01599855

     Total force =     0.062423     Total SCF correction =     0.000036

     Entering Dynamics:    iteration =    96
                           time      =   0.0929 pico-seconds


ATOMIC_POSITIONS (angstrom)
O        5.000145423   4.861300567   5.069390515
H        5.694450003   4.349274303   4.499116229
H        4.309575302   5.203532427   4.396969850


     kinetic energy (Ekin) =     0.00353969 Ry
     temperature           =   186.29048902 K 
     Ekin + Etot (const)   =   -43.78476471 Ry

     Linear momentum :   -0.0000000000   -0.0000000000    0.0000000000

     Writing output data file h2o.save/
     Message from routine punch:
     wavefunctions written to file

     second order wave-functions extrapolation
     second order charge density extrapolation

     Check: negative core charge=   -0.000055

     negative rho (up, down):  5.060E-03 0.000E+00

     total cpu time spent up to now is      176.4 secs

     Self-consistent Calculation

     iteration #  1     ecut=    25.00 Ry     beta= 0.70
     Davidson diagonalization with overlap
     ethr =  1.00E-06,  avg # of iterations =  3.0

     Threshold (ethr) on eigenvalues was too large:
     Diagonalizing with lowered threshold

     Davidson diagonalization with overlap
     ethr =  2.12E-08,  avg # of iterations =  2.0

     negative rho (up, down):  5.051E-03 0.000E+00

     total cpu time spent up to now is      176.8 secs

     total energy              =     -43.78780129 Ry
     Harris-Foulkes estimate   =     -43.78737416 Ry
     estimated scf accuracy    <       0.00000172 Ry

     iteration #  2     ecut=    25.00 Ry     beta= 0.70
     Davidson diagonalization with overlap
     ethr =  2.15E-08,  avg # of iterations =  1.0

     negative rho (up, down):  5.050E-03 0.000E+00

     total cpu time spent up to now is      177.1 secs

     total energy              =     -43.78780154 Ry
     Harris-Foulkes estimate   =     -43.78780139 Ry
     estimated scf accuracy    <       0.00000012 Ry

     iteration #  3     ecut=    25.00 Ry     beta= 0.70
     Davidson diagonalization with overlap
     ethr =  1.45E-09,  avg # of iterations =  1.0

     negative rho (up, down):  5.050E-03 0.000E+00

     total cpu time spent up to now is      177.4 secs

     End of self-consistent calculation

          k = 0.0000 0.0000 0.0000 (  7123 PWs)   bands (ev):

   -24.9632 -12.3495  -9.0437  -6.8825

     highest occupied level (ev):    -6.8825

!    total energy              =     -43.78780155 Ry
     Harris-Foulkes estimate   =     -43.78780154 Ry
     estimated scf accuracy    <          2.9E-09 Ry

     convergence has been achieved in   3 iterations

     negative rho (up, down):  5.050E-03 0.000E+00

     Forces acting on atoms (cartesian axes, Ry/au):

     atom    1 type  2   force =     0.00945613   -0.01092133   -0.03431568
     atom    2 type  1   force =    -0.03741256    0.02638556    0.01938825
     atom    3 type  1   force =     0.02795643   -0.01546423    0.01492743

     Total force =     0.071425     Total SCF correction =     0.000034

     Entering Dynamics:    iteration =    97
                           time      =   0.0939 pico-seconds


ATOMIC_POSITIONS (angstrom)
O        5.001494980   4.862587276   5.069109645
H        5.674789286   4.337462678   4.492559942
H        4.307812421   5.194918142   4.407984823


     kinetic energy (Ekin) =     0.00306331 Ry
     temperature           =   161.21948874 K 
     Ekin + Etot (const)   =   -43.78473824 Ry

     Linear momentum :    0.0000000000   -0.0000000000   -0.0000000000

     Writing output data file h2o.save/
     Message from routine punch:
     wavefunctions written to file

     second order wave-functions extrapolation
     second order charge density extrapolation

     Check: negative core charge=   -0.000055

     negative rho (up, down):  5.080E-03 0.000E+00

     total cpu time spent up to now is      178.0 secs

     Self-consistent Calculation

     iteration #  1     ecut=    25.00 Ry     beta= 0.70
     Davidson diagonalization with overlap
     ethr =  1.00E-06,  avg # of iterations =  3.0

     Threshold (ethr) on eigenvalues was too large:
     Diagonalizing with lowered threshold

     Davidson diagonalization with overlap
     ethr =  6.71E-09,  avg # of iterations =  2.0

     negative rho (up, down):  5.077E-03 0.000E+00

     total cpu time spent up to now is      178.4 secs

     total energy              =     -43.78870569 Ry
     Harris-Foulkes estimate   =     -43.78910955 Ry
     estimated scf accuracy    <       0.00000057 Ry

     iteration #  2     ecut=    25.00 Ry     beta= 0.70
     Davidson diagonalization with overlap
     ethr =  7.16E-09,  avg # of iterations =  1.0

     negative rho (up, down):  5.076E-03 0.000E+00

     total cpu time spent up to now is      178.7 secs

     total energy              =     -43.78870579 Ry
     Harris-Foulkes estimate   =     -43.78870573 Ry
     estimated scf accuracy    <       0.00000005 Ry

     iteration #  3     ecut=    25.00 Ry     beta= 0.70
     Davidson diagonalization with overlap
     ethr =  5.85E-10,  avg # of iterations =  2.0

     negative rho (up, down):  5.076E-03 0.000E+00

     total cpu time spent up to now is      179.0 secs

     End of self-consistent calculation

          k = 0.0000 0.0000 0.0000 (  7123 PWs)   bands (ev):

   -25.0303 -12.3821  -9.0743  -6.8982

     highest occupied level (ev):    -6.8982

!    total energy              =     -43.78870580 Ry
     Harris-Foulkes estimate   =     -43.78870580 Ry
     estimated scf accuracy    <          8.4E-09 Ry

     convergence has been achieved in   3 iterations

     negative rho (up, down):  5.076E-03 0.000E+00

     Forces acting on atoms (cartesian axes, Ry/au):

     atom    1 type  2   force =     0.01362245   -0.01344796   -0.02648894
     atom    2 type  1   force =    -0.03252292    0.02410887    0.01844922
     atom    3 type  1   force =     0.01890047   -0.01066091    0.00803971

     Total force =     0.059858     Total SCF correction =     0.000065

     Entering Dynamics:    iteration =    98
                           time      =   0.0948 pico-seconds


ATOMIC_POSITIONS (angstrom)
O        5.003042276   4.863678778   5.068444269
H        5.647634307   4.331206466   4.490254914
H        4.310404780   5.183847262   4.420852389


     kinetic energy (Ekin) =     0.00388768 Ry
     temperature           =   204.60522640 K 
     Ekin + Etot (const)   =   -43.78481811 Ry

     Linear momentum :   -0.0000000000    0.0000000000   -0.0000000000

     Writing output data file h2o.save/
     Message from routine punch:
     wavefunctions written to file

     second order wave-functions extrapolation
     second order charge density extrapolation

     Check: negative core charge=   -0.000055

     negative rho (up, down):  5.140E-03 0.000E+00

     total cpu time spent up to now is      179.6 secs

     Self-consistent Calculation

     iteration #  1     ecut=    25.00 Ry     beta= 0.70
     Davidson diagonalization with overlap
     ethr =  1.00E-06,  avg # of iterations =  3.0

     Threshold (ethr) on eigenvalues was too large:
     Diagonalizing with lowered threshold

     Davidson diagonalization with overlap
     ethr =  1.29E-08,  avg # of iterations =  2.0

     negative rho (up, down):  5.134E-03 0.000E+00

     total cpu time spent up to now is      180.0 secs

     total energy              =     -43.79003312 Ry
     Harris-Foulkes estimate   =     -43.79105417 Ry
     estimated scf accuracy    <       0.00000102 Ry

     iteration #  2     ecut=    25.00 Ry     beta= 0.70
     Davidson diagonalization with overlap
     ethr =  1.27E-08,  avg # of iterations =  2.0

     negative rho (up, down):  5.136E-03 0.000E+00

     total cpu time spent up to now is      180.3 secs

     total energy              =     -43.79003325 Ry
     Harris-Foulkes estimate   =     -43.79003357 Ry
     estimated scf accuracy    <       0.00000064 Ry

     iteration #  3     ecut=    25.00 Ry     beta= 0.70
     Davidson diagonalization with overlap
     ethr =  8.00E-09,  avg # of iterations =  2.0

     negative rho (up, down):  5.136E-03 0.000E+00

     total cpu time spent up to now is      180.6 secs

     total energy              =     -43.79003343 Ry
     Harris-Foulkes estimate   =     -43.79003342 Ry
     estimated scf accuracy    <       0.00000004 Ry

     iteration #  4     ecut=    25.00 Ry     beta= 0.70
     Davidson diagonalization with overlap
     ethr =  5.53E-10,  avg # of iterations =  2.0

     negative rho (up, down):  5.136E-03 0.000E+00

     total cpu time spent up to now is      180.9 secs

     End of self-consistent calculation

          k = 0.0000 0.0000 0.0000 (  7123 PWs)   bands (ev):

   -25.1736 -12.4661  -9.1248  -6.9299

     highest occupied level (ev):    -6.9299

!    total energy              =     -43.79003344 Ry
     Harris-Foulkes estimate   =     -43.79003344 Ry
     estimated scf accuracy    <          6.8E-10 Ry

     convergence has been achieved in   4 iterations

     negative rho (up, down):  5.136E-03 0.000E+00

     Forces acting on atoms (cartesian axes, Ry/au):

     atom    1 type  2   force =     0.01450787   -0.01141993   -0.00804645
     atom    2 type  1   force =    -0.01817005    0.01420662    0.01070071
     atom    3 type  1   force =     0.00366218   -0.00278669   -0.00265426

     Total force =     0.032869     Total SCF correction =     0.000087

     Entering Dynamics:    iteration =    99
                           time      =   0.0958 pico-seconds


ATOMIC_POSITIONS (angstrom)
O        5.004800164   4.864604511   5.067662093
H        5.616292399   4.328223888   4.490415652
H        4.313841016   5.172134243   4.433108334


     kinetic energy (Ekin) =     0.00509454 Ry
     temperature           =   268.12093313 K 
     Ekin + Etot (const)   =   -43.78493890 Ry

     Linear momentum :   -0.0000000000    0.0000000000    0.0000000000

     Writing output data file h2o.save/
     Message from routine punch:
     wavefunctions written to file

     second order wave-functions extrapolation
     second order charge density extrapolation

     Check: negative core charge=   -0.000055

     negative rho (up, down):  5.217E-03 0.000E+00

     total cpu time spent up to now is      181.5 secs

     Self-consistent Calculation

     iteration #  1     ecut=    25.00 Ry     beta= 0.70
     Davidson diagonalization with overlap
     ethr =  1.00E-06,  avg # of iterations =  3.0

     Threshold (ethr) on eigenvalues was too large:
     Diagonalizing with lowered threshold

     Davidson diagonalization with overlap
     ethr =  1.55E-08,  avg # of iterations =  2.0

     negative rho (up, down):  5.212E-03 0.000E+00

     total cpu time spent up to now is      181.9 secs

     total energy              =     -43.79027082 Ry
     Harris-Foulkes estimate   =     -43.79153479 Ry
     estimated scf accuracy    <       0.00000122 Ry

     iteration #  2     ecut=    25.00 Ry     beta= 0.70
     Davidson diagonalization with overlap
     ethr =  1.52E-08,  avg # of iterations =  1.0

     negative rho (up, down):  5.210E-03 0.000E+00

     total cpu time spent up to now is      182.2 secs

     total energy              =     -43.79027098 Ry
     Harris-Foulkes estimate   =     -43.79027092 Ry
     estimated scf accuracy    <       0.00000008 Ry

     iteration #  3     ecut=    25.00 Ry     beta= 0.70
     Davidson diagonalization with overlap
     ethr =  1.00E-09,  avg # of iterations =  2.0

     negative rho (up, down):  5.211E-03 0.000E+00

     total cpu time spent up to now is      182.5 secs

     End of self-consistent calculation

          k = 0.0000 0.0000 0.0000 (  7123 PWs)   bands (ev):

   -25.3533 -12.5670  -9.1889  -6.9695

     highest occupied level (ev):    -6.9695

!    total energy              =     -43.79027099 Ry
     Harris-Foulkes estimate   =     -43.79027099 Ry
     estimated scf accuracy    <          4.1E-09 Ry

     convergence has been achieved in   3 iterations

     negative rho (up, down):  5.211E-03 0.000E+00

     Forces acting on atoms (cartesian axes, Ry/au):

     atom    1 type  2   force =     0.01126392   -0.00431373    0.01573317
     atom    2 type  1   force =     0.00215435   -0.00159480   -0.00225492
     atom    3 type  1   force =    -0.01341828    0.00590853   -0.01347825

     Total force =     0.028318     Total SCF correction =     0.000021

     Entering Dynamics:    iteration =   100
                           time      =   0.0968 pico-seconds


ATOMIC_POSITIONS (angstrom)
O        5.006721556   4.865467628   5.067108295
H        5.585446919   4.324873819   4.490056788
H        4.314185276   5.161782729   4.442258484


     kinetic energy (Ekin) =     0.00529037 Ry
     temperature           =   278.42754209 K 
     Ekin + Etot (const)   =   -43.78498062 Ry

     Linear momentum :   -0.0000000000   -0.0000000000    0.0000000000

     The maximum number of steps has been reached.

     End of molecular dynamics calculation

     diffusion coefficients :
     atom     1   D =       0.00000200 cm^2/s
     atom     2   D =       0.00054806 cm^2/s
     atom     3   D =       0.00010003 cm^2/s

     < D > =       0.00021670 cm^2/s

     Writing output data file h2o.save/
 
     init_run     :      0.34s CPU      0.38s WALL (       1 calls)
     electrons    :    122.62s CPU    131.87s WALL (     100 calls)
     update_pot   :     19.19s CPU     20.94s WALL (      99 calls)
     forces       :     16.21s CPU     17.23s WALL (     100 calls)

     Called by init_run:
     wfcinit      :      0.03s CPU      0.03s WALL (       1 calls)
     potinit      :      0.13s CPU      0.14s WALL (       1 calls)
     hinit0       :      0.15s CPU      0.15s WALL (       1 calls)

     Called by electrons:
     c_bands      :     27.40s CPU     29.74s WALL (     476 calls)
     sum_band     :     29.08s CPU     31.58s WALL (     476 calls)
     v_of_rho     :     37.56s CPU     40.26s WALL (     497 calls)
     newd         :     14.24s CPU     15.13s WALL (     497 calls)
     PAW_pot      :     27.98s CPU     29.22s WALL (     596 calls)
     mix_rho      :      4.80s CPU      5.22s WALL (     476 calls)

     Called by c_bands:
     init_us_2    :      1.43s CPU      1.57s WALL (    1150 calls)
     cegterg      :     25.87s CPU     28.09s WALL (     476 calls)

     Called by sum_band:
     sum_band:bec :      0.01s CPU      0.01s WALL (     575 calls)
     addusdens    :     19.02s CPU     20.68s WALL (     476 calls)

     Called by *egterg:
     h_psi        :     23.27s CPU     25.28s WALL (    1473 calls)
     s_psi        :      0.49s CPU      0.54s WALL (    1571 calls)
     g_psi        :      0.16s CPU      0.17s WALL (     996 calls)
     cdiaghg      :      0.18s CPU      0.20s WALL (    1294 calls)

     Called by h_psi:
     h_psi:pot    :     23.15s CPU     25.15s WALL (    1473 calls)
     h_psi:calbec :      0.81s CPU      0.88s WALL (    1473 calls)
     vloc_psi     :     21.84s CPU     23.73s WALL (    1473 calls)
     add_vuspsi   :      0.48s CPU      0.53s WALL (    1473 calls)

     General routines
     calbec       :      1.27s CPU      1.40s WALL (    2644 calls)
     fft          :     29.25s CPU     31.41s WALL (    6745 calls)
     ffts         :      2.27s CPU      2.48s WALL (     476 calls)
     fftw         :     20.73s CPU     22.52s WALL (   12936 calls)
     davcio       :      0.06s CPU      0.08s WALL (     491 calls)
 
     Parallel routines
     fft_scatt_xy :      7.06s CPU      7.66s WALL (   20157 calls)
     fft_scatt_yz :     21.04s CPU     22.67s WALL (   20157 calls)
 
     PWSCF        :   2m49.25s CPU   3m 2.71s WALL

 
   This run was terminated on:  17:23:58   7Apr2020            

=------------------------------------------------------------------------------=
   JOB DONE.
=------------------------------------------------------------------------------=
