
     Program PWSCF v.6.4.1 starts on 19Jul2019 at 20:39:32 

     This program is part of the open-source Quantum ESPRESSO suite
     for quantum simulation of materials; please cite
         "P. Giannozzi et al., J. Phys.:Condens. Matter 21 395502 (2009);
         "P. Giannozzi et al., J. Phys.:Condens. Matter 29 465901 (2017);
          URL http://www.quantum-espresso.org", 
     in publications or presentations arising from this work. More details at
     http://www.quantum-espresso.org/quote

     Parallel version (MPI), running on     2 processors

     MPI processes distributed on     1 nodes
     R & G space division:  proc/nbgrp/npool/nimage =       2
     Reading input from ni.1_scf.in

     Current dimensions of program PWSCF are:
     Max number of different atomic species (ntypx) = 10
     Max number of k-points (npk) =  40000
     Max angular momentum in pseudopotentials (lmaxx) =  3
               file O.pbe-n-kjpaw_psl.0.1.UPF: wavefunction(s)  2P renormalized

     Subspace diagonalization in iterative solution of the eigenvalue problem:
     a serial algorithm will be used

 
     Parallelization info
     --------------------
     sticks:   dense  smooth     PW     G-vecs:    dense   smooth      PW
     Min        1027     412    132                23276     5930    1067
     Max        1028     413    133                23277     5931    1068
     Sum        2055     825    265                46553    11861    2135
 


     bravais-lattice index     =            5
     lattice parameter (alat)  =       9.6715  a.u.
     unit-cell volume          =     246.2189 (a.u.)^3
     number of atoms/cell      =            4
     number of atomic types    =            3
     number of electrons       =        48.00 (up:  24.00, down:  24.00)
     number of Kohn-Sham states=           36
     kinetic-energy cutoff     =      50.0000  Ry
     charge density cutoff     =     500.0000  Ry
     convergence threshold     =      1.0E-09
     mixing beta               =       0.3000
     number of iterations used =            8  plain     mixing
     Exchange-correlation      = SLA PW PBX PBC ( 1  4  3  4 0 0)

     celldm(1)=   9.671550  celldm(2)=   0.000000  celldm(3)=   0.000000
     celldm(4)=   0.833333  celldm(5)=   0.000000  celldm(6)=   0.000000

     crystal axes: (cart. coord. in units of alat)
               a(1) = (   0.288675  -0.166667   0.942809 )  
               a(2) = (   0.000000   0.333333   0.942809 )  
               a(3) = (  -0.288675  -0.166667   0.942809 )  

     reciprocal axes: (cart. coord. in units 2 pi/alat)
               b(1) = (  1.732051 -1.000000  0.353553 )  
               b(2) = (  0.000000  2.000000  0.353553 )  
               b(3) = ( -1.732051 -1.000000  0.353553 )  


     PseudoPot. # 1 for Ni read from file:
     /home/anonymous/quantumEspresso_2019/SSSP_precision_pseudos/ni_pbe_v1.4.uspp.F.UPF
     MD5 check sum: 1ee80287db30b12d2bc1f57a5b5d6409
     Pseudo is Ultrasoft + core correction, Zval = 18.0
     Generated by new atomic code, or converted to UPF format
     Using radial grid of  865 points,  6 beta functions with: 
                l(1) =   0
                l(2) =   0
                l(3) =   1
                l(4) =   1
                l(5) =   2
                l(6) =   2
     Q(r) pseudized with 10 coefficients,  rinner =    0.980   0.980   0.980
                                                       0.980   0.980

     PseudoPot. # 2 for Ni read from file:
     /home/anonymous/quantumEspresso_2019/SSSP_precision_pseudos/ni_pbe_v1.4.uspp.F.UPF
     MD5 check sum: 1ee80287db30b12d2bc1f57a5b5d6409
     Pseudo is Ultrasoft + core correction, Zval = 18.0
     Generated by new atomic code, or converted to UPF format
     Using radial grid of  865 points,  6 beta functions with: 
                l(1) =   0
                l(2) =   0
                l(3) =   1
                l(4) =   1
                l(5) =   2
                l(6) =   2
     Q(r) pseudized with 10 coefficients,  rinner =    0.980   0.980   0.980
                                                       0.980   0.980

     PseudoPot. # 3 for O  read from file:
     /home/anonymous/quantumEspresso_2019/SSSP_precision_pseudos/O.pbe-n-kjpaw_psl.0.1.UPF
     MD5 check sum: 0234752ac141de4415c5fc33072bef88
     Pseudo is Projector augmented-wave + core cor, Zval =  6.0
     Generated using "atomic" code by A. Dal Corso v.5.0.99 svn rev. 10869
     Shape of augmentation charge: BESSEL
     Using radial grid of 1095 points,  4 beta functions with: 
                l(1) =   0
                l(2) =   0
                l(3) =   1
                l(4) =   1
     Q(r) pseudized with 0 coefficients 


     atomic species   valence    mass     pseudopotential
        Ni1           18.00    58.69340     Ni( 1.00)
        Ni2           18.00    58.69340     Ni( 1.00)
        O              6.00    15.99900     O ( 1.00)

     Starting magnetic structure 
     atomic species   magnetization
        Ni1          0.200
        Ni2         -0.200
        O            0.000

     12 Sym. Ops., with inversion, found



   Cartesian axes

     site n.     atom                  positions (alat units)
         1           Ni1 tau(   1) = (   0.0000000   0.0000000   0.0000000  )
         2           Ni2 tau(   2) = (   0.0000000   0.6666667   0.4714045  )
         3           O   tau(   3) = (   0.2886751  -0.1666667   0.2357023  )
         4           O   tau(   4) = (  -0.2886751   0.1666667  -0.2357023  )

     number of k points=    13
                       cart. coord. in units 2pi/alat
        k(    1) = (   0.0000000   0.0000000   0.0000000), wk =   0.0156250
        k(    2) = (  -0.4330127  -0.2500000   0.0883883), wk =   0.0937500
        k(    3) = (   0.8660254   0.5000000  -0.1767767), wk =   0.0468750
        k(    4) = (  -0.4330127   0.2500000   0.1767767), wk =   0.0937500
        k(    5) = (   0.8660254   1.0000000  -0.0883883), wk =   0.1875000
        k(    6) = (   0.4330127   0.7500000   0.0000000), wk =   0.0937500
        k(    7) = (   0.8660254  -0.5000000  -0.3535534), wk =   0.0468750
        k(    8) = (   0.0000000   0.0000000   0.2651650), wk =   0.0312500
        k(    9) = (   1.2990381   0.7500000   0.0000000), wk =   0.0937500
        k(   10) = (   0.8660254   0.5000000   0.0883883), wk =   0.0937500
        k(   11) = (   1.2990381  -0.7500000  -0.2651650), wk =   0.0937500
        k(   12) = (   0.8660254  -1.0000000  -0.1767767), wk =   0.0937500
        k(   13) = (   0.0000000   0.0000000  -0.5303301), wk =   0.0156250

     Dense  grid:    46553 G-vectors     FFT dimensions: (  72,  72,  72)

     Smooth grid:    11861 G-vectors     FFT dimensions: (  45,  45,  45)

     Estimated max dynamical RAM per process >     127.77 MB

     Estimated total dynamical RAM >     255.53 MB
     Generating pointlists ...
     new r_m :   0.1684 (alat units)  1.6287 (a.u.) for type    1
     new r_m :   0.1684 (alat units)  1.6287 (a.u.) for type    2
     new r_m :   0.1684 (alat units)  1.6287 (a.u.) for type    3

     Check: negative core charge=   -0.000006

     Initial potential from superposition of free atoms

     starting charge   44.00000, renormalised to   48.00000
     Starting wfcs are   34 randomized atomic wfcs +    2 random wfcs
     Checking if some PAW data can be deallocated... 

     total cpu time spent up to now is        4.2 secs

     Self-consistent Calculation

     iteration #  1     ecut=    50.00 Ry     beta= 0.30
     Davidson diagonalization with overlap
     ethr =  1.00E-02,  avg # of iterations =  4.0

     total cpu time spent up to now is       13.8 secs

     total energy              =    -750.93995818 Ry
     Harris-Foulkes estimate   =    -780.38757563 Ry
     estimated scf accuracy    <      63.60866182 Ry

     total magnetization       =    -0.00 Bohr mag/cell
     absolute magnetization    =     3.92 Bohr mag/cell

     iteration #  2     ecut=    50.00 Ry     beta= 0.30
     Davidson diagonalization with overlap
     ethr =  1.00E-02,  avg # of iterations =  3.0

     total cpu time spent up to now is       22.5 secs

     total energy              =    -767.39124790 Ry
     Harris-Foulkes estimate   =    -774.85381537 Ry
     estimated scf accuracy    <      24.30467279 Ry

     total magnetization       =     0.00 Bohr mag/cell
     absolute magnetization    =     0.36 Bohr mag/cell

     iteration #  3     ecut=    50.00 Ry     beta= 0.30
     Davidson diagonalization with overlap
     ethr =  1.00E-02,  avg # of iterations =  2.0

     total cpu time spent up to now is       29.1 secs

     total energy              =    -769.71132052 Ry
     Harris-Foulkes estimate   =    -769.71696418 Ry
     estimated scf accuracy    <       0.29307426 Ry

     total magnetization       =    -0.00 Bohr mag/cell
     absolute magnetization    =     2.89 Bohr mag/cell

     iteration #  4     ecut=    50.00 Ry     beta= 0.30
     Davidson diagonalization with overlap
     ethr =  6.11E-04,  avg # of iterations =  1.2

     total cpu time spent up to now is       35.4 secs

     total energy              =    -769.77016664 Ry
     Harris-Foulkes estimate   =    -769.73999726 Ry
     estimated scf accuracy    <       0.07536966 Ry

     total magnetization       =     0.00 Bohr mag/cell
     absolute magnetization    =     3.14 Bohr mag/cell

     iteration #  5     ecut=    50.00 Ry     beta= 0.30
     Davidson diagonalization with overlap
     ethr =  1.57E-04,  avg # of iterations =  1.0

     total cpu time spent up to now is       41.4 secs

     total energy              =    -769.77204251 Ry
     Harris-Foulkes estimate   =    -769.78046554 Ry
     estimated scf accuracy    <       0.03449135 Ry

     total magnetization       =     0.00 Bohr mag/cell
     absolute magnetization    =     2.95 Bohr mag/cell

     iteration #  6     ecut=    50.00 Ry     beta= 0.30
     Davidson diagonalization with overlap
     ethr =  7.19E-05,  avg # of iterations =  1.2

     total cpu time spent up to now is       47.3 secs

     total energy              =    -769.77741563 Ry
     Harris-Foulkes estimate   =    -769.77759039 Ry
     estimated scf accuracy    <       0.00077267 Ry

     total magnetization       =     0.00 Bohr mag/cell
     absolute magnetization    =     3.06 Bohr mag/cell

     iteration #  7     ecut=    50.00 Ry     beta= 0.30
     Davidson diagonalization with overlap
     ethr =  1.61E-06,  avg # of iterations =  2.6

     total cpu time spent up to now is       54.0 secs

     total energy              =    -769.77757286 Ry
     Harris-Foulkes estimate   =    -769.77756049 Ry
     estimated scf accuracy    <       0.00001813 Ry

     total magnetization       =     0.00 Bohr mag/cell
     absolute magnetization    =     3.04 Bohr mag/cell

     iteration #  8     ecut=    50.00 Ry     beta= 0.30
     Davidson diagonalization with overlap
     ethr =  3.78E-08,  avg # of iterations =  2.0

     total cpu time spent up to now is       60.3 secs

     total energy              =    -769.77758149 Ry
     Harris-Foulkes estimate   =    -769.77757857 Ry
     estimated scf accuracy    <       0.00002915 Ry

     total magnetization       =    -0.00 Bohr mag/cell
     absolute magnetization    =     3.04 Bohr mag/cell

     iteration #  9     ecut=    50.00 Ry     beta= 0.30
     Davidson diagonalization with overlap
     ethr =  3.78E-08,  avg # of iterations =  1.0

     total cpu time spent up to now is       66.3 secs

     total energy              =    -769.77758216 Ry
     Harris-Foulkes estimate   =    -769.77758272 Ry
     estimated scf accuracy    <       0.00001664 Ry

     total magnetization       =    -0.00 Bohr mag/cell
     absolute magnetization    =     3.04 Bohr mag/cell

     iteration # 10     ecut=    50.00 Ry     beta= 0.30
     Davidson diagonalization with overlap
     ethr =  3.47E-08,  avg # of iterations =  1.9

     total cpu time spent up to now is       72.3 secs

     total energy              =    -769.77758555 Ry
     Harris-Foulkes estimate   =    -769.77758457 Ry
     estimated scf accuracy    <       0.00000011 Ry

     total magnetization       =    -0.00 Bohr mag/cell
     absolute magnetization    =     3.04 Bohr mag/cell

     iteration # 11     ecut=    50.00 Ry     beta= 0.30
     Davidson diagonalization with overlap
     ethr =  2.23E-10,  avg # of iterations =  2.0

     total cpu time spent up to now is       78.9 secs

     total energy              =    -769.77758606 Ry
     Harris-Foulkes estimate   =    -769.77758557 Ry
     estimated scf accuracy    <       0.00000003 Ry

     total magnetization       =     0.00 Bohr mag/cell
     absolute magnetization    =     3.04 Bohr mag/cell

     iteration # 12     ecut=    50.00 Ry     beta= 0.30
     Davidson diagonalization with overlap
     ethr =  6.22E-11,  avg # of iterations =  2.0

     total cpu time spent up to now is       85.1 secs

     total energy              =    -769.77758630 Ry
     Harris-Foulkes estimate   =    -769.77758606 Ry
     estimated scf accuracy    <       0.00000001 Ry

     total magnetization       =     0.00 Bohr mag/cell
     absolute magnetization    =     3.04 Bohr mag/cell

     iteration # 13     ecut=    50.00 Ry     beta= 0.30
     Davidson diagonalization with overlap
     ethr =  3.10E-11,  avg # of iterations =  2.0
 
     Magnetic moment per site:
     atom:    1    charge:   15.6816    magn:    1.3676    constr:    0.0000
     atom:    2    charge:   15.6816    magn:   -1.3676    constr:    0.0000
     atom:    3    charge:    5.6696    magn:    0.0000    constr:    0.0000
     atom:    4    charge:    5.6696    magn:    0.0000    constr:    0.0000

     total cpu time spent up to now is       91.6 secs

     End of self-consistent calculation

 ------ SPIN UP ------------


          k = 0.0000 0.0000 0.0000 (  1479 PWs)   bands (ev):

   -90.1599 -88.2474 -50.5612 -50.5312 -50.5312 -48.7031 -48.6843 -48.6843
    -6.0143  -4.6163   6.1251   8.7598   8.7598  11.3711  11.3711  11.3730
    11.7831  11.7831  11.8818  12.2330  12.2330  13.1851  13.1851  13.4542
    15.7309  15.7309  15.8468  19.8520  24.3494  28.3213  28.3213  31.9451
    33.1443  33.1463  33.1463  35.5639

          k =-0.4330-0.2500 0.0884 (  1466 PWs)   bands (ev):

   -90.1590 -88.2464 -50.5597 -50.5425 -50.5341 -48.7014 -48.6969 -48.6875
    -5.4334  -4.5271   7.0719   8.2933   8.4473   8.9026   9.9071  10.1396
    11.7624  12.2846  12.4191  12.7720  12.9415  13.2229  13.5368  13.5657
    14.9070  15.4083  18.8079  22.5487  23.6119  25.4192  27.3942  29.4783
    29.5049  30.8507  32.8679  35.3052

          k = 0.8660 0.5000-0.1768 (  1470 PWs)   bands (ev):

   -90.1581 -88.2455 -50.5581 -50.5537 -50.5369 -48.7095 -48.6998 -48.6907
    -4.6018  -4.5868   7.1191   7.2093   8.4454   8.7929   9.0123   9.5553
    11.7137  12.3634  12.6816  12.7198  13.2667  13.4269  13.5635  13.7190
    15.1528  15.1788  21.7427  21.8976  24.0229  24.1661  25.9258  25.9796
    29.7305  29.8365  33.3859  33.3895

          k =-0.4330 0.2500 0.1768 (  1480 PWs)   bands (ev):

   -90.1590 -88.2464 -50.5597 -50.5425 -50.5341 -48.7014 -48.6969 -48.6875
    -5.3778  -4.5945   7.1648   8.1976   8.5682   9.1257   9.6660   9.7627
    11.8451  12.2109  12.3367  12.9339  13.0094  13.3104  13.6308  13.7721
    15.1491  15.1733  18.5835  21.8213  24.0914  25.9534  26.4741  29.7778
    30.6251  30.6332  33.3882  34.6483

          k = 0.8660 1.0000-0.0884 (  1465 PWs)   bands (ev):

   -90.1581 -88.2455 -50.5581 -50.5495 -50.5411 -48.7048 -48.6998 -48.6954
    -4.7014  -4.4899   7.0844   7.6045   8.3739   8.7545   9.0001   9.1703
    12.1149  12.2743  12.4500  12.8870  13.0210  13.4173  13.5117  13.6699
    14.9954  15.4759  21.4658  22.5228  24.2681  24.5673  25.2867  26.1272
    28.9600  29.4355  34.2915  34.7189

          k = 0.4330 0.7500 0.0000 (  1466 PWs)   bands (ev):

   -90.1581 -88.2455 -50.5581 -50.5495 -50.5411 -48.7048 -48.6998 -48.6954
    -4.7465  -4.4474   7.1480   8.2035   8.2072   8.5698   8.8420   8.9151
    12.2105  12.4053  12.5188  12.7714  12.9394  13.2116  13.5070  13.6602
    14.8344  15.7725  21.3541  22.8776  24.9771  24.9802  25.2747  25.3837
    27.7560  29.6933  35.9230  36.3411

          k = 0.8660-0.5000-0.3536 (  1494 PWs)   bands (ev):

   -90.1581 -88.2455 -50.5582 -50.5537 -50.5370 -48.7095 -48.6997 -48.6907
    -4.6161  -4.5585   6.1240   7.4224   8.7653   8.7841  10.0614  10.0624
    11.0101  12.2845  12.5099  12.7358  12.9045  13.3243  13.5796  13.6984
    15.7780  15.8441  19.8542  20.5087  24.3499  24.8733  26.5445  28.3206
    28.3231  30.9300  30.9308  35.5671

          k = 0.0000 0.0000 0.2652 (  1476 PWs)   bands (ev):

   -90.1599 -88.2474 -50.5612 -50.5312 -50.5312 -48.7031 -48.6843 -48.6843
    -5.8378  -4.8564   6.7034   8.9457   8.9457  10.0851  10.6126  10.6126
    11.8329  11.8329  12.1680  12.9522  12.9522  13.1838  13.1838  13.3089
    15.4970  15.4970  16.8631  19.6725  24.7466  28.9546  28.9546  29.3358
    32.5301  32.5301  34.2157  35.1693

          k = 1.2990 0.7500 0.0000 (  1471 PWs)   bands (ev):

   -90.1590 -88.2464 -50.5596 -50.5425 -50.5341 -48.7015 -48.6969 -48.6875
    -5.2428  -4.7466   7.1428   7.9060   8.8353   8.8949  10.2721  10.2814
    11.4325  12.3457  12.4350  12.4351  12.7409  13.2822  13.4433  13.6327
    14.5631  15.6927  19.7945  21.3542  25.2679  25.3815  27.4509  27.8077
    29.6911  30.8147  30.8190  35.9261

          k = 0.8660 0.5000 0.0884 (  1475 PWs)   bands (ev):

   -90.1581 -88.2455 -50.5581 -50.5537 -50.5369 -48.7095 -48.6997 -48.6907
    -4.6119  -4.5697   6.4431   7.4466   8.6757   8.8615   9.3224   9.8242
    11.4469  12.3392  12.5540  12.8693  13.0385  13.2714  13.5727  13.7104
    15.4900  15.5025  20.7478  21.0632  24.1537  24.7962  26.0710  27.2169
    28.7789  30.6323  31.4628  36.2206

          k = 1.2990-0.7500-0.2652 (  1471 PWs)   bands (ev):

   -90.1590 -88.2464 -50.5596 -50.5425 -50.5341 -48.7015 -48.6969 -48.6875
    -5.1014  -4.8995   7.3827   7.5957   9.0957   9.3255   9.6217   9.8902
    11.5839  12.2190  12.3498  12.7818  12.9805  13.2339  13.5763  13.5792
    14.8502  15.5069  19.7050  20.7955  25.5175  25.7890  26.7258  28.0123
    30.2048  30.4001  31.7935  35.2635

          k = 0.8660-1.0000-0.1768 (  1470 PWs)   bands (ev):

   -90.1581 -88.2455 -50.5581 -50.5495 -50.5411 -48.7048 -48.6998 -48.6954
    -4.5974  -4.5913   7.1539   7.1739   8.5132   8.6358   9.1916   9.4420
    11.9937  12.1084  12.4622  12.9097  13.2026  13.5810  13.5912  13.6465
    15.1551  15.1581  21.7637  21.8781  24.0369  24.1498  25.9352  25.9749
    29.7368  29.8272  33.3607  33.4142

          k = 0.0000 0.0000-0.5303 (  1490 PWs)   bands (ev):

   -90.1599 -88.2474 -50.5611 -50.5312 -50.5312 -48.7032 -48.6843 -48.6843
    -5.3808  -5.3749   8.1737   8.2242   9.2795   9.2795   9.9771   9.9771
    11.8873  11.8873  12.2717  13.0203  13.0203  13.1524  13.6505  13.6505
    15.1716  15.1716  18.5154  18.6526  26.4048  26.5401  30.5964  30.5964
    30.6546  30.6546  34.6043  34.6839

 ------ SPIN DOWN ----------


          k = 0.0000 0.0000 0.0000 (  1479 PWs)   bands (ev):

   -90.1599 -88.2474 -50.5612 -50.5312 -50.5312 -48.7031 -48.6843 -48.6843
    -6.0143  -4.6163   6.1251   8.7598   8.7598  11.3711  11.3711  11.3730
    11.7831  11.7831  11.8818  12.2330  12.2330  13.1851  13.1851  13.4542
    15.7309  15.7309  15.8468  19.8520  24.3494  28.3213  28.3213  31.9451
    33.1443  33.1463  33.1463  35.5639

          k =-0.4330-0.2500 0.0884 (  1466 PWs)   bands (ev):

   -90.1590 -88.2464 -50.5597 -50.5425 -50.5341 -48.7014 -48.6969 -48.6875
    -5.4334  -4.5271   7.0719   8.2933   8.4473   8.9026   9.9071  10.1396
    11.7624  12.2846  12.4191  12.7720  12.9415  13.2229  13.5368  13.5657
    14.9070  15.4083  18.8079  22.5487  23.6119  25.4192  27.3942  29.4783
    29.5049  30.8507  32.8679  35.3052

          k = 0.8660 0.5000-0.1768 (  1470 PWs)   bands (ev):

   -90.1581 -88.2455 -50.5581 -50.5537 -50.5369 -48.7095 -48.6998 -48.6907
    -4.6018  -4.5868   7.1191   7.2093   8.4454   8.7929   9.0123   9.5553
    11.7137  12.3634  12.6816  12.7198  13.2667  13.4269  13.5635  13.7190
    15.1528  15.1788  21.7427  21.8976  24.0229  24.1661  25.9258  25.9796
    29.7305  29.8365  33.3859  33.3895

          k =-0.4330 0.2500 0.1768 (  1480 PWs)   bands (ev):

   -90.1590 -88.2464 -50.5597 -50.5425 -50.5341 -48.7014 -48.6969 -48.6875
    -5.3778  -4.5945   7.1648   8.1976   8.5682   9.1257   9.6660   9.7627
    11.8451  12.2109  12.3367  12.9339  13.0094  13.3104  13.6308  13.7721
    15.1491  15.1733  18.5835  21.8213  24.0914  25.9534  26.4741  29.7778
    30.6251  30.6332  33.3882  34.6483

          k = 0.8660 1.0000-0.0884 (  1465 PWs)   bands (ev):

   -90.1581 -88.2455 -50.5581 -50.5495 -50.5411 -48.7048 -48.6997 -48.6954
    -4.7014  -4.4899   7.0844   7.6045   8.3739   8.7545   9.0001   9.1703
    12.1149  12.2743  12.4500  12.8870  13.0210  13.4173  13.5117  13.6699
    14.9954  15.4759  21.4658  22.5228  24.2681  24.5673  25.2867  26.1272
    28.9600  29.4355  34.2915  34.7189

          k = 0.4330 0.7500 0.0000 (  1466 PWs)   bands (ev):

   -90.1581 -88.2455 -50.5581 -50.5495 -50.5411 -48.7048 -48.6998 -48.6954
    -4.7465  -4.4474   7.1480   8.2035   8.2072   8.5698   8.8420   8.9151
    12.2105  12.4053  12.5188  12.7714  12.9394  13.2116  13.5070  13.6602
    14.8344  15.7725  21.3541  22.8776  24.9771  24.9802  25.2747  25.3837
    27.7560  29.6933  35.9230  36.3411

          k = 0.8660-0.5000-0.3536 (  1494 PWs)   bands (ev):

   -90.1581 -88.2455 -50.5582 -50.5537 -50.5370 -48.7095 -48.6997 -48.6907
    -4.6161  -4.5585   6.1240   7.4224   8.7653   8.7841  10.0614  10.0624
    11.0101  12.2845  12.5099  12.7358  12.9045  13.3243  13.5796  13.6984
    15.7780  15.8441  19.8542  20.5087  24.3499  24.8733  26.5445  28.3206
    28.3231  30.9300  30.9308  35.5671

          k = 0.0000 0.0000 0.2652 (  1476 PWs)   bands (ev):

   -90.1599 -88.2474 -50.5612 -50.5312 -50.5312 -48.7031 -48.6843 -48.6843
    -5.8378  -4.8564   6.7034   8.9457   8.9457  10.0851  10.6126  10.6126
    11.8329  11.8329  12.1680  12.9522  12.9522  13.1838  13.1838  13.3089
    15.4970  15.4970  16.8631  19.6725  24.7466  28.9546  28.9546  29.3358
    32.5301  32.5301  34.2157  35.1693

          k = 1.2990 0.7500 0.0000 (  1471 PWs)   bands (ev):

   -90.1590 -88.2464 -50.5596 -50.5425 -50.5341 -48.7015 -48.6969 -48.6875
    -5.2428  -4.7466   7.1428   7.9060   8.8353   8.8949  10.2721  10.2814
    11.4325  12.3457  12.4350  12.4351  12.7409  13.2822  13.4433  13.6327
    14.5631  15.6927  19.7945  21.3542  25.2679  25.3815  27.4509  27.8077
    29.6911  30.8147  30.8190  35.9261

          k = 0.8660 0.5000 0.0884 (  1475 PWs)   bands (ev):

   -90.1581 -88.2455 -50.5581 -50.5537 -50.5369 -48.7095 -48.6997 -48.6907
    -4.6119  -4.5697   6.4431   7.4466   8.6757   8.8615   9.3224   9.8242
    11.4469  12.3392  12.5540  12.8693  13.0385  13.2714  13.5727  13.7104
    15.4900  15.5025  20.7478  21.0632  24.1537  24.7962  26.0710  27.2169
    28.7789  30.6323  31.4628  36.2206

          k = 1.2990-0.7500-0.2652 (  1471 PWs)   bands (ev):

   -90.1590 -88.2464 -50.5596 -50.5425 -50.5341 -48.7015 -48.6969 -48.6875
    -5.1014  -4.8995   7.3827   7.5957   9.0957   9.3255   9.6217   9.8902
    11.5839  12.2190  12.3498  12.7818  12.9805  13.2339  13.5763  13.5792
    14.8502  15.5069  19.7050  20.7955  25.5175  25.7890  26.7258  28.0123
    30.2048  30.4001  31.7935  35.2635

          k = 0.8660-1.0000-0.1768 (  1470 PWs)   bands (ev):

   -90.1581 -88.2455 -50.5581 -50.5495 -50.5411 -48.7048 -48.6997 -48.6954
    -4.5974  -4.5913   7.1539   7.1739   8.5132   8.6358   9.1916   9.4420
    11.9937  12.1084  12.4622  12.9097  13.2026  13.5810  13.5912  13.6465
    15.1551  15.1581  21.7637  21.8781  24.0369  24.1498  25.9352  25.9749
    29.7368  29.8272  33.3607  33.4142

          k = 0.0000 0.0000-0.5303 (  1490 PWs)   bands (ev):

   -90.1599 -88.2474 -50.5611 -50.5312 -50.5312 -48.7032 -48.6843 -48.6843
    -5.3808  -5.3749   8.1737   8.2242   9.2795   9.2795   9.9771   9.9771
    11.8873  11.8873  12.2717  13.0203  13.0203  13.1525  13.6505  13.6505
    15.1716  15.1716  18.5154  18.6526  26.4048  26.5401  30.5964  30.5964
    30.6546  30.6546  34.6043  34.6839

     highest occupied, lowest unoccupied level (ev):    13.7721   14.5631

!    total energy              =    -769.77758652 Ry
     Harris-Foulkes estimate   =    -769.77758630 Ry
     estimated scf accuracy    <          2.0E-10 Ry

     The total energy is the sum of the following terms:

     one-electron contribution =    -433.33530893 Ry
     hartree contribution      =     246.32672441 Ry
     xc contribution           =     -86.08238030 Ry
     ewald contribution        =    -477.64553572 Ry
     one-center paw contrib.   =     -19.04108599 Ry

     total magnetization       =    -0.00 Bohr mag/cell
     absolute magnetization    =     3.04 Bohr mag/cell

     convergence has been achieved in  13 iterations

     Forces acting on atoms (cartesian axes, Ry/au):

     atom    1 type  1   force =     0.00000000    0.00000000    0.00000000
     atom    2 type  2   force =    -0.00000000   -0.00000000    0.00000000
     atom    3 type  3   force =     0.00000000   -0.00000000    0.00000033
     atom    4 type  3   force =     0.00000000    0.00000000   -0.00000033

     Total force =     0.000000     Total SCF correction =     0.000003
     SCF correction compared to forces is large: reduce conv_thr to get better values

     Writing output data file NiO.save/
 
     init_run     :      3.60s CPU      3.76s WALL (       1 calls)
     electrons    :     85.04s CPU     87.42s WALL (       1 calls)
     forces       :      0.99s CPU      1.04s WALL (       1 calls)

     Called by init_run:
     wfcinit      :      1.90s CPU      1.96s WALL (       1 calls)
     potinit      :      0.68s CPU      0.71s WALL (       1 calls)
     hinit0       :      0.84s CPU      0.85s WALL (       1 calls)

     Called by electrons:
     c_bands      :     58.15s CPU     58.84s WALL (      13 calls)
     sum_band     :     16.88s CPU     17.76s WALL (      13 calls)
     v_of_rho     :      4.96s CPU      5.10s WALL (      14 calls)
     newd         :      2.02s CPU      2.77s WALL (      14 calls)
     PAW_pot      :      2.72s CPU      2.72s WALL (      14 calls)
     mix_rho      :      0.58s CPU      0.58s WALL (      13 calls)

     Called by c_bands:
     init_us_2    :      0.49s CPU      0.50s WALL (     728 calls)
     cegterg      :     56.70s CPU     57.38s WALL (     338 calls)

     Called by sum_band:
     sum_band:bec :      0.01s CPU      0.01s WALL (     338 calls)
     addusdens    :      3.40s CPU      4.09s WALL (      13 calls)

     Called by *egterg:
     h_psi        :     51.45s CPU     52.15s WALL (    1037 calls)
     s_psi        :      0.66s CPU      0.67s WALL (    1037 calls)
     g_psi        :      0.16s CPU      0.16s WALL (     673 calls)
     cdiaghg      :      2.82s CPU      2.83s WALL (    1011 calls)

     Called by h_psi:
     h_psi:pot    :     51.37s CPU     52.07s WALL (    1037 calls)
     h_psi:calbec :      0.87s CPU      0.88s WALL (    1037 calls)
     vloc_psi     :     49.82s CPU     50.50s WALL (    1037 calls)
     add_vuspsi   :      0.66s CPU      0.67s WALL (    1037 calls)

     General routines
     calbec       :      1.33s CPU      1.35s WALL (    1479 calls)
     fft          :      2.95s CPU      3.01s WALL (     363 calls)
     ffts         :      0.08s CPU      0.08s WALL (      54 calls)
     fftw         :     54.46s CPU     55.23s WALL (   70794 calls)
     interpolate  :      0.31s CPU      0.31s WALL (      28 calls)
 
     Parallel routines
     fft_scatt_xy :      8.96s CPU      9.07s WALL (   71211 calls)
     fft_scatt_yz :     13.31s CPU     13.54s WALL (   71211 calls)
 
     PWSCF        :   1m30.11s CPU   1m32.73s WALL

 
   This run was terminated on:  20:41: 5  19Jul2019            

=------------------------------------------------------------------------------=
   JOB DONE.
=------------------------------------------------------------------------------=
