
     Program PWSCF v.6.4.1 starts on 29Jun2019 at 22:51:34 

     This program is part of the open-source Quantum ESPRESSO suite
     for quantum simulation of materials; please cite
         "P. Giannozzi et al., J. Phys.:Condens. Matter 21 395502 (2009);
         "P. Giannozzi et al., J. Phys.:Condens. Matter 29 465901 (2017);
          URL http://www.quantum-espresso.org", 
     in publications or presentations arising from this work. More details at
     http://www.quantum-espresso.org/quote

     Parallel version (MPI), running on     2 processors

     MPI processes distributed on     1 nodes
     R & G space division:  proc/nbgrp/npool/nimage =       2
     Reading input from fe.2_scf.in

     Current dimensions of program PWSCF are:
     Max number of different atomic species (ntypx) = 10
     Max number of k-points (npk) =  40000
     Max angular momentum in pseudopotentials (lmaxx) =  3
               file Fe.pbe-spn-kjpaw_psl.0.2.1.UPF: wavefunction(s)  3D renormalized

     Subspace diagonalization in iterative solution of the eigenvalue problem:
     a serial algorithm will be used

 
     Parallelization info
     --------------------
     sticks:   dense  smooth     PW     G-vecs:    dense   smooth      PW
     Min         235     114     41                 3229     1120     229
     Max         236     115     42                 3230     1123     230
     Sum         471     229     83                 6459     2243     459
 


     bravais-lattice index     =            3
     lattice parameter (alat)  =       5.0958  a.u.
     unit-cell volume          =      66.1611 (a.u.)^3
     number of atoms/cell      =            1
     number of atomic types    =            1
     number of electrons       =        16.00
     number of Kohn-Sham states=           12
     kinetic-energy cutoff     =      40.0000  Ry
     charge density cutoff     =     320.0000  Ry
     convergence threshold     =      1.0E-08
     mixing beta               =       0.7000
     number of iterations used =            8  plain     mixing
     Exchange-correlation      = SLA PW PBX PBC ( 1  4  3  4 0 0)

     celldm(1)=   5.095783  celldm(2)=   0.000000  celldm(3)=   0.000000
     celldm(4)=   0.000000  celldm(5)=   0.000000  celldm(6)=   0.000000

     crystal axes: (cart. coord. in units of alat)
               a(1) = (   0.500000   0.500000   0.500000 )  
               a(2) = (  -0.500000   0.500000   0.500000 )  
               a(3) = (  -0.500000  -0.500000   0.500000 )  

     reciprocal axes: (cart. coord. in units 2 pi/alat)
               b(1) = (  1.000000  0.000000  1.000000 )  
               b(2) = ( -1.000000  1.000000  0.000000 )  
               b(3) = (  0.000000 -1.000000  1.000000 )  


     PseudoPot. # 1 for Fe read from file:
     /home/anonymous/quantumEspresso_2019/SSSP_precision_pseudos/Fe.pbe-spn-kjpaw_psl.0.2.1.UPF
     MD5 check sum: e86618425769142926afa95317d90200
     Pseudo is Projector augmented-wave + core cor, Zval = 16.0
     Generated using "atomic" code by A. Dal Corso v.5.0.99 svn rev. 10869
     Shape of augmentation charge: PSQ
     Using radial grid of 1191 points,  6 beta functions with: 
                l(1) =   0
                l(2) =   0
                l(3) =   1
                l(4) =   1
                l(5) =   2
                l(6) =   2
     Q(r) pseudized with 0 coefficients 


     atomic species   valence    mass     pseudopotential
        Fe            16.00    55.84500     Fe( 1.00)

     Starting magnetic structure 
     atomic species   magnetization
        Fe           0.100

     48 Sym. Ops., with inversion, found



   Cartesian axes

     site n.     atom                  positions (alat units)
         1           Fe  tau(   1) = (   0.0000000   0.0000000   0.0000000  )

     number of k points=    47  Marzari-Vanderbilt smearing, width (Ry)=  0.0100
                       cart. coord. in units 2pi/alat
        k(    1) = (   0.0000000   0.0000000   0.0000000), wk =   0.0010000
        k(    2) = (   0.0000000  -0.1000000   0.1000000), wk =   0.0120000
        k(    3) = (   0.0000000  -0.2000000   0.2000000), wk =   0.0120000
        k(    4) = (   0.0000000  -0.3000000   0.3000000), wk =   0.0120000
        k(    5) = (   0.0000000  -0.4000000   0.4000000), wk =   0.0120000
        k(    6) = (   0.0000000   0.5000000  -0.5000000), wk =   0.0060000
        k(    7) = (  -0.1000000  -0.1000000   0.2000000), wk =   0.0240000
        k(    8) = (  -0.1000000  -0.2000000   0.3000000), wk =   0.0480000
        k(    9) = (  -0.1000000  -0.3000000   0.4000000), wk =   0.0480000
        k(   10) = (  -0.1000000   0.6000000  -0.5000000), wk =   0.0480000
        k(   11) = (  -0.2000000  -0.2000000   0.4000000), wk =   0.0240000
        k(   12) = (  -0.2000000   0.7000000  -0.5000000), wk =   0.0480000
        k(   13) = (  -0.2000000   0.6000000  -0.4000000), wk =   0.0240000
        k(   14) = (  -0.3000000   0.7000000  -0.4000000), wk =   0.0240000
        k(   15) = (   0.0000000   0.0000000   0.2000000), wk =   0.0060000
        k(   16) = (   0.0000000  -0.1000000   0.3000000), wk =   0.0240000
        k(   17) = (   0.0000000  -0.2000000   0.4000000), wk =   0.0240000
        k(   18) = (   0.0000000  -0.3000000   0.5000000), wk =   0.0240000
        k(   19) = (   0.0000000   0.6000000  -0.4000000), wk =   0.0120000
        k(   20) = (  -0.1000000  -0.1000000   0.4000000), wk =   0.0240000
        k(   21) = (  -0.1000000  -0.2000000   0.5000000), wk =   0.0480000
        k(   22) = (  -0.1000000   0.7000000  -0.4000000), wk =   0.0480000
        k(   23) = (  -0.2000000   0.2000000   0.2000000), wk =   0.0080000
        k(   24) = (  -0.2000000   0.8000000  -0.4000000), wk =   0.0240000
        k(   25) = (  -0.2000000   0.7000000  -0.3000000), wk =   0.0240000
        k(   26) = (  -0.3000000   0.3000000   0.2000000), wk =   0.0240000
        k(   27) = (   0.6000000  -0.6000000   0.2000000), wk =   0.0240000
        k(   28) = (   0.6000000  -0.7000000   0.3000000), wk =   0.0240000
        k(   29) = (   0.5000000  -0.5000000   0.2000000), wk =   0.0120000
        k(   30) = (   0.5000000  -0.6000000   0.3000000), wk =   0.0480000
        k(   31) = (   0.4000000  -0.6000000   0.4000000), wk =   0.0080000
        k(   32) = (   0.0000000   0.0000000   0.4000000), wk =   0.0060000
        k(   33) = (   0.0000000  -0.1000000   0.5000000), wk =   0.0240000
        k(   34) = (   0.0000000  -0.2000000   0.6000000), wk =   0.0240000
        k(   35) = (   0.0000000   0.7000000  -0.3000000), wk =   0.0120000
        k(   36) = (  -0.1000000  -0.1000000   0.6000000), wk =   0.0240000
        k(   37) = (  -0.1000000   0.8000000  -0.3000000), wk =   0.0480000
        k(   38) = (  -0.2000000   0.8000000  -0.2000000), wk =   0.0080000
        k(   39) = (   0.6000000  -0.6000000   0.4000000), wk =   0.0080000
        k(   40) = (   0.5000000  -0.5000000   0.4000000), wk =   0.0120000
        k(   41) = (   0.0000000   0.0000000   0.6000000), wk =   0.0060000
        k(   42) = (   0.0000000  -0.1000000   0.7000000), wk =   0.0240000
        k(   43) = (   0.0000000   0.8000000  -0.2000000), wk =   0.0120000
        k(   44) = (  -0.1000000   0.9000000  -0.2000000), wk =   0.0240000
        k(   45) = (   0.0000000   0.0000000   0.8000000), wk =   0.0060000
        k(   46) = (   0.0000000   0.9000000  -0.1000000), wk =   0.0120000
        k(   47) = (   0.0000000   0.0000000  -1.0000000), wk =   0.0010000

     Dense  grid:     6459 G-vectors     FFT dimensions: (  25,  25,  25)

     Smooth grid:     2243 G-vectors     FFT dimensions: (  18,  18,  18)

     Estimated max dynamical RAM per process >      16.10 MB

     Estimated total dynamical RAM >      32.20 MB
     Generating pointlists ...
     new r_m :   0.3572 (alat units)  1.8204 (a.u.) for type    1

     Check: negative core charge=   -0.000327

     Initial potential from superposition of free atoms

     starting charge   15.99956, renormalised to   16.00000
     Starting wfcs are   13 randomized atomic wfcs
     Checking if some PAW data can be deallocated... 

     total cpu time spent up to now is        1.7 secs

     Self-consistent Calculation

     iteration #  1     ecut=    40.00 Ry     beta= 0.70
     Davidson diagonalization with overlap
     ethr =  1.00E-02,  avg # of iterations =  3.8

     Threshold (ethr) on eigenvalues was too large:
     Diagonalizing with lowered threshold

     Davidson diagonalization with overlap
     ethr =  2.48E-04,  avg # of iterations =  1.9

     total cpu time spent up to now is        3.4 secs

     total energy              =    -329.13832207 Ry
     Harris-Foulkes estimate   =    -329.15595507 Ry
     estimated scf accuracy    <       0.03991036 Ry

     total magnetization       =     1.66 Bohr mag/cell
     absolute magnetization    =     1.66 Bohr mag/cell

     iteration #  2     ecut=    40.00 Ry     beta= 0.70
     Davidson diagonalization with overlap
     ethr =  2.49E-04,  avg # of iterations =  2.1

     total cpu time spent up to now is        4.5 secs

     total energy              =    -329.14481055 Ry
     Harris-Foulkes estimate   =    -329.17742445 Ry
     estimated scf accuracy    <       0.08872191 Ry

     total magnetization       =     1.90 Bohr mag/cell
     absolute magnetization    =     1.91 Bohr mag/cell

     iteration #  3     ecut=    40.00 Ry     beta= 0.70
     Davidson diagonalization with overlap
     ethr =  2.49E-04,  avg # of iterations =  2.0

     total cpu time spent up to now is        5.4 secs

     total energy              =    -329.16118757 Ry
     Harris-Foulkes estimate   =    -329.15918816 Ry
     estimated scf accuracy    <       0.00235897 Ry

     total magnetization       =     1.86 Bohr mag/cell
     absolute magnetization    =     1.88 Bohr mag/cell

     iteration #  4     ecut=    40.00 Ry     beta= 0.70
     Davidson diagonalization with overlap
     ethr =  1.47E-05,  avg # of iterations =  2.9

     total cpu time spent up to now is        6.5 secs

     total energy              =    -329.16245311 Ry
     Harris-Foulkes estimate   =    -329.16231662 Ry
     estimated scf accuracy    <       0.00014397 Ry

     total magnetization       =     1.92 Bohr mag/cell
     absolute magnetization    =     1.98 Bohr mag/cell

     iteration #  5     ecut=    40.00 Ry     beta= 0.70
     Davidson diagonalization with overlap
     ethr =  9.00E-07,  avg # of iterations =  2.0

     total cpu time spent up to now is        7.4 secs

     total energy              =    -329.16251500 Ry
     Harris-Foulkes estimate   =    -329.16249403 Ry
     estimated scf accuracy    <       0.00002136 Ry

     total magnetization       =     1.92 Bohr mag/cell
     absolute magnetization    =     1.99 Bohr mag/cell

     iteration #  6     ecut=    40.00 Ry     beta= 0.70
     Davidson diagonalization with overlap
     ethr =  1.33E-07,  avg # of iterations =  1.6

     total cpu time spent up to now is        8.3 secs

     total energy              =    -329.16252216 Ry
     Harris-Foulkes estimate   =    -329.16252199 Ry
     estimated scf accuracy    <       0.00000194 Ry

     total magnetization       =     1.93 Bohr mag/cell
     absolute magnetization    =     2.00 Bohr mag/cell

     iteration #  7     ecut=    40.00 Ry     beta= 0.70
     Davidson diagonalization with overlap
     ethr =  1.21E-08,  avg # of iterations =  2.6

     total cpu time spent up to now is        9.4 secs

     total energy              =    -329.16252465 Ry
     Harris-Foulkes estimate   =    -329.16252442 Ry
     estimated scf accuracy    <       0.00000011 Ry

     total magnetization       =     1.93 Bohr mag/cell
     absolute magnetization    =     2.01 Bohr mag/cell

     iteration #  8     ecut=    40.00 Ry     beta= 0.70
     Davidson diagonalization with overlap
     ethr =  6.80E-10,  avg # of iterations =  2.2
 
     Magnetic moment per site:
     atom:    1    charge:   14.3011    magn:    1.9522    constr:    0.0000

     total cpu time spent up to now is       10.4 secs

     End of self-consistent calculation

 ------ SPIN UP ------------


          k = 0.0000 0.0000 0.0000 (   321 PWs)   bands (ev):

   -66.2925 -31.8965 -31.8965 -31.8965  12.4891  19.3673  19.3673  19.3673
    20.8644  20.8644  48.2110  48.2110

          k = 0.0000-0.1000 0.1000 (   293 PWs)   bands (ev):

   -66.2787 -31.8989 -31.8670 -31.8459  13.0662  19.2249  19.3488  19.6456
    20.7343  20.8780  46.0864  47.6660

          k = 0.0000-0.2000 0.2000 (   281 PWs)   bands (ev):

   -66.2422 -32.0683 -31.9062 -31.8296  14.4339  18.8614  19.2379  20.4141
    20.6236  20.9233  42.0994  45.9805

          k = 0.0000-0.3000 0.3000 (   283 PWs)   bands (ev):

   -66.1968 -32.3017 -31.9789 -31.8386  15.8060  18.4338  19.5872  20.7945
    21.0035  21.4517  37.4640  43.9514

          k = 0.0000-0.4000 0.4000 (   282 PWs)   bands (ev):

   -66.1599 -32.4735 -32.0357 -31.8486  16.1664  18.1037  20.8306  21.0894
    21.7791  22.3824  33.0766  42.4400

          k = 0.0000 0.5000-0.5000 (   276 PWs)   bands (ev):

   -66.1458 -32.5287 -32.0571 -31.8294  16.1194  17.9813  20.9829  21.1281
    22.7660  23.4393  30.7930  41.9802

          k =-0.1000-0.1000 0.2000 (   288 PWs)   bands (ev):

   -66.2535 -32.0226 -31.8878 -31.8570  14.0001  19.0524  19.1272  20.2379
    20.5621  20.9535  43.7835  45.2941

          k =-0.1000-0.2000 0.3000 (   282 PWs)   bands (ev):

   -66.2125 -32.2037 -31.9436 -31.8626  15.5043  18.6544  18.9683  20.5602
    21.0644  21.3116  39.9738  43.0370

          k =-0.1000-0.3000 0.4000 (   284 PWs)   bands (ev):

   -66.1713 -32.3966 -32.0270 -31.8658  16.3970  18.2760  19.6364  20.8253
    21.2520  22.6904  35.3523  41.4559

          k =-0.1000 0.6000-0.5000 (   280 PWs)   bands (ev):

   -66.1458 -32.5049 -32.0660 -31.8618  16.3913  18.0649  20.4871  20.9573
    21.8368  24.4389  31.5581  40.5758

          k =-0.2000-0.2000 0.4000 (   282 PWs)   bands (ev):

   -66.1757 -32.3391 -32.0200 -31.8934  16.7522  18.3229  18.8320  20.6234
    21.2550  22.8942  37.8083  38.9670

          k =-0.2000 0.7000-0.5000 (   285 PWs)   bands (ev):

   -66.1459 -32.4310 -32.1208 -31.9116  17.0909  18.1404  19.2589  20.8633
    21.4587  25.1308  33.7548  37.2173

          k =-0.2000 0.6000-0.4000 (   286 PWs)   bands (ev):

   -66.1344 -32.4591 -32.1659 -31.9140  17.0117  18.1229  19.5073  20.9712
    21.6370  27.0548  31.0095  36.7147

          k =-0.3000 0.7000-0.4000 (   285 PWs)   bands (ev):

   -66.1301 -32.3801 -32.2539 -31.9304  17.5567  18.1720  18.8211  21.1067
    21.4313  28.3128  32.0821  33.7199

          k = 0.0000 0.0000 0.2000 (   289 PWs)   bands (ev):

   -66.2652 -31.9242 -31.8798 -31.8798  13.5491  19.3767  19.3767  19.6443
    20.3869  21.0542  44.9918  47.5878

          k = 0.0000-0.1000 0.3000 (   289 PWs)   bands (ev):

   -66.2296 -32.0767 -31.9545 -31.8991  14.8124  19.1203  19.2587  20.1290
    20.3403  21.2400  42.1476  45.4163

          k = 0.0000-0.2000 0.4000 (   281 PWs)   bands (ev):

   -66.1855 -32.2895 -32.0019 -31.8837  16.1619  18.7318  19.1003  20.5134
    21.3893  21.6256  37.7995  43.3356

          k = 0.0000-0.3000 0.5000 (   282 PWs)   bands (ev):

   -66.1496 -32.4579 -32.0626 -31.8941  16.4645  18.4244  19.5884  20.7726
    22.3394  23.2098  33.3492  42.0366

          k = 0.0000 0.6000-0.4000 (   284 PWs)   bands (ev):

   -66.1359 -32.5230 -32.0868 -31.9107  16.3932  18.3098  19.8889  20.7410
    22.7324  24.8482  30.8558  41.5379

          k =-0.1000-0.1000 0.4000 (   283 PWs)   bands (ev):

   -66.1909 -32.2233 -32.0043 -31.9205  16.1122  18.7353  19.2070  20.0826
    21.0811  21.7399  40.0284  41.6087

          k =-0.1000-0.2000 0.5000 (   287 PWs)   bands (ev):

   -66.1520 -32.3750 -32.0962 -31.9521  16.9137  18.3677  19.1109  20.4951
    21.6789  23.3780  35.9752  39.3998

          k =-0.1000 0.7000-0.4000 (   282 PWs)   bands (ev):

   -66.1278 -32.4648 -32.1310 -31.9543  16.8657  18.5208  19.0377  20.6815
    22.2676  25.9455  31.9148  38.5706

          k =-0.2000 0.2000 0.2000 (   288 PWs)   bands (ev):

   -66.2228 -32.1773 -31.9013 -31.9013  15.2219  18.6797  18.6797  20.8221
    20.8221  21.3271  41.9359  41.9359

          k =-0.2000 0.8000-0.4000 (   284 PWs)   bands (ev):

   -66.1248 -32.4092 -32.2009 -31.9671  17.5670  17.8516  18.9342  20.8541
    21.8108  26.2329  34.2744  35.2918

          k =-0.2000 0.7000-0.3000 (   284 PWs)   bands (ev):

   -66.1144 -32.4080 -32.2610 -31.9741  17.5298  18.2984  18.3970  21.1331
    21.8583  28.9325  31.3180  34.4612

          k =-0.3000 0.3000 0.2000 (   281 PWs)   bands (ev):

   -66.1848 -32.3243 -31.9694 -31.8953  16.6753  18.2835  18.6181  20.8657
    21.0063  22.8256  37.9243  40.3644

          k = 0.6000-0.6000 0.2000 (   281 PWs)   bands (ev):

   -66.1539 -32.4366 -32.0619 -31.8925  16.8982  18.0241  19.7501  21.0009
    21.1103  24.7541  33.5379  39.2935

          k = 0.6000-0.7000 0.3000 (   281 PWs)   bands (ev):

   -66.1570 -32.3922 -32.0435 -31.9409  17.5480  18.1086  18.6068  20.9800
    21.1346  24.9118  36.0215  36.9687

          k = 0.5000-0.5000 0.2000 (   282 PWs)   bands (ev):

   -66.1421 -32.4585 -32.1065 -31.9117  16.7939  17.9307  20.4917  21.0608
    21.1443  26.4486  30.9168  38.8276

          k = 0.5000-0.6000 0.3000 (   287 PWs)   bands (ev):

   -66.1398 -32.3990 -32.1567 -31.9655  17.4759  18.0299  19.2498  21.0941
    21.2051  27.5028  32.2527  35.7090

          k = 0.4000-0.6000 0.4000 (   291 PWs)   bands (ev):

   -66.1344 -32.2904 -32.2904 -32.0001  17.6339  18.5750  18.5750  21.1874
    21.1874  30.6484  30.6484  33.1345

          k = 0.0000 0.0000 0.4000 (   293 PWs)   bands (ev):

   -66.1967 -32.1415 -32.0102 -32.0102  15.8574  19.1432  19.6179  19.6179
    20.3815  21.7069  41.8078  44.1783

          k = 0.0000-0.1000 0.5000 (   286 PWs)   bands (ev):

   -66.1558 -32.2796 -32.0681 -32.0334  16.8594  18.3673  19.5350  20.1358
    21.2535  22.6935  38.7159  42.1331

          k = 0.0000-0.2000 0.6000 (   282 PWs)   bands (ev):

   -66.1226 -32.4144 -32.1208 -32.0311  17.0117  18.1974  19.3234  20.4387
    22.2289  25.0398  34.1497  40.8332

          k = 0.0000 0.7000-0.3000 (   284 PWs)   bands (ev):

   -66.1099 -32.4695 -32.1509 -32.0394  16.8644  18.3066  19.2359  20.4610
    22.6451  27.3476  31.0935  40.1873

          k =-0.1000-0.1000 0.6000 (   281 PWs)   bands (ev):

   -66.1206 -32.3501 -32.1562 -32.0605  17.3100  17.6928  19.6635  20.5594
    21.7941  24.8107  36.9570  37.7439

          k =-0.1000 0.8000-0.3000 (   280 PWs)   bands (ev):

   -66.0988 -32.4034 -32.2253 -32.0654  17.1438  17.6549  19.4417  20.9625
    22.2808  28.0271  32.7995  36.4404

          k =-0.2000 0.8000-0.2000 (   279 PWs)   bands (ev):

   -66.0896 -32.3434 -32.3434 -32.0532  17.3250  17.3250  19.2998  21.8201
    21.8201  31.4196  31.4196  33.3784

          k = 0.6000-0.6000 0.4000 (   282 PWs)   bands (ev):

   -66.1419 -32.3664 -32.0582 -32.0582  18.0531  18.0531  18.6039  21.1370
    21.1370  27.5134  34.8997  34.8997

          k = 0.5000-0.5000 0.4000 (   288 PWs)   bands (ev):

   -66.1361 -32.2946 -32.1888 -32.0748  18.0481  18.0502  18.7937  21.1645
    21.1710  30.2042  31.7215  34.4559

          k = 0.0000 0.0000 0.6000 (   277 PWs)   bands (ev):

   -66.1190 -32.2851 -32.1309 -32.1309  17.1572  17.6529  20.4299  20.4299
    21.3245  24.3254  39.9582  39.9582

          k = 0.0000-0.1000 0.7000 (   277 PWs)   bands (ev):

   -66.0891 -32.3507 -32.2021 -32.1666  16.9869  17.1576  20.5794  20.8900
    22.1029  27.0891  35.5798  38.1051

          k = 0.0000 0.8000-0.2000 (   276 PWs)   bands (ev):

   -66.0777 -32.3950 -32.2224 -32.1628  16.7649  17.0936  20.5511  21.0324
    22.5381  30.1176  31.9302  37.4574

          k =-0.1000 0.9000-0.2000 (   272 PWs)   bands (ev):

   -66.0696 -32.3558 -32.2910 -32.1583  16.7084  16.7850  20.7049  21.7247
    22.2921  30.3714  34.1333  34.8221

          k = 0.0000 0.0000 0.8000 (   269 PWs)   bands (ev):

   -66.0620 -32.3098 -32.2608 -32.2608  16.4990  16.5584  21.6836  21.6836
    22.1125  29.8139  36.1608  36.1608

          k = 0.0000 0.9000-0.1000 (   274 PWs)   bands (ev):

   -66.0516 -32.3492 -32.2884 -32.2759  16.2906  16.3286  21.8401  22.0000
    22.4521  32.7146  33.3578  35.3459

          k = 0.0000 0.0000-1.0000 (   266 PWs)   bands (ev):

   -66.0416 -32.3109 -32.3109 -32.3109  16.0720  16.0720  22.4196  22.4196
    22.4196  34.5367  34.5367  34.5367

 ------ SPIN DOWN ----------


          k = 0.0000 0.0000 0.0000 (   321 PWs)   bands (ev):

   -63.9693 -29.6045 -29.6045 -29.6045  12.6886  20.9617  20.9617  20.9617
    23.4737  23.4737  48.0435  48.0435

          k = 0.0000-0.1000 0.1000 (   293 PWs)   bands (ev):

   -63.9544 -29.6182 -29.5805 -29.5576  13.2645  20.7982  20.9315  21.2581
    23.3010  23.4882  46.2012  47.6046

          k = 0.0000-0.2000 0.2000 (   281 PWs)   bands (ev):

   -63.9152 -29.8042 -29.6258 -29.5424  14.6649  20.3838  20.7863  22.0803
    23.0635  23.5409  42.5471  46.0500

          k = 0.0000-0.3000 0.3000 (   283 PWs)   bands (ev):

   -63.8665 -30.0548 -29.7034 -29.5514  16.3049  19.9008  20.8369  23.0982
    23.1999  23.6423  38.1761  44.0258

          k = 0.0000-0.4000 0.4000 (   282 PWs)   bands (ev):

   -63.8268 -30.2409 -29.7640 -29.5613  17.1582  19.5307  22.1574  23.2714
    23.7565  24.2164  34.0629  42.4732

          k = 0.0000 0.5000-0.5000 (   276 PWs)   bands (ev):

   -63.8116 -30.3023 -29.7874 -29.5434  17.2491  19.3941  23.3147  23.5319
    23.8091  24.6397  32.0395  41.9835

          k =-0.1000-0.1000 0.2000 (   288 PWs)   bands (ev):

   -63.9274 -29.7528 -29.6037 -29.5703  14.2111  20.5939  20.6952  21.8786
    23.0486  23.5650  44.1006  45.5225

          k =-0.1000-0.2000 0.3000 (   282 PWs)   bands (ev):

   -63.8834 -29.9503 -29.6661 -29.5766  15.8199  20.1514  20.4601  22.9028
    22.9716  23.7075  40.5442  43.3512

          k =-0.1000-0.3000 0.4000 (   284 PWs)   bands (ev):

   -63.8391 -30.1567 -29.7547 -29.5808  17.1843  19.7171  20.8110  23.0785
    23.7642  24.3528  36.1663  41.7561

          k =-0.1000 0.6000-0.5000 (   280 PWs)   bands (ev):

   -63.8116 -30.2740 -29.7979 -29.5775  17.5121  19.4724  21.9290  23.2548
    23.9706  25.6466  32.6709  40.8457

          k =-0.2000-0.2000 0.4000 (   282 PWs)   bands (ev):

   -63.8438 -30.0955 -29.7483 -29.6103  17.3420  19.8492  20.1316  22.9070
    23.7440  24.5658  38.4912  39.4832

          k =-0.2000 0.7000-0.5000 (   285 PWs)   bands (ev):

   -63.8117 -30.1931 -29.8562 -29.6292  18.1634  19.5711  20.4899  23.1228
    23.8394  26.4852  34.6167  37.7954

          k =-0.2000 0.6000-0.4000 (   286 PWs)   bands (ev):

   -63.7994 -30.2234 -29.9042 -29.6319  18.2198  19.5113  20.8792  23.2627
    23.8816  28.0648  32.1206  37.2909

          k =-0.3000 0.7000-0.4000 (   285 PWs)   bands (ev):

   -63.7947 -30.1388 -29.9998 -29.6492  18.7880  19.5811  20.1639  23.3625
    23.7158  29.3720  32.9797  34.4735

          k = 0.0000 0.0000 0.2000 (   289 PWs)   bands (ev):

   -63.9399 -29.6456 -29.5956 -29.5956  13.7522  20.9470  20.9470  21.2588
    22.8761  23.6950  45.1804  47.6798

          k = 0.0000-0.1000 0.3000 (   289 PWs)   bands (ev):

   -63.9018 -29.8121 -29.6741 -29.6153  15.0609  20.6532  20.8614  21.9994
    22.4203  23.8733  42.6186  45.6491

          k = 0.0000-0.2000 0.4000 (   281 PWs)   bands (ev):

   -63.8544 -30.0420 -29.7284 -29.6012  16.6939  20.2148  20.6667  22.5588
    23.1305  24.0972  38.5106  43.5813

          k = 0.0000-0.3000 0.5000 (   282 PWs)   bands (ev):

   -63.8158 -30.2236 -29.7931 -29.6107  17.5132  19.8700  21.1473  22.9111
    24.1689  24.8624  34.3065  42.2669

          k = 0.0000 0.6000-0.4000 (   284 PWs)   bands (ev):

   -63.8011 -30.2938 -29.8184 -29.6260  17.5891  19.7421  21.5957  22.9457
    24.6032  25.8948  32.0690  41.7591

          k =-0.1000-0.1000 0.4000 (   283 PWs)   bands (ev):

   -63.8602 -29.9697 -29.7303 -29.6409  16.5190  20.4487  20.6743  22.1311
    22.8365  24.1891  40.6747  42.0590

          k =-0.1000-0.2000 0.5000 (   287 PWs)   bands (ev):

   -63.8184 -30.1338 -29.8278 -29.6709  17.7899  19.9784  20.5676  22.4724
    23.7009  25.1425  36.7709  39.9445

          k =-0.1000 0.7000-0.4000 (   282 PWs)   bands (ev):

   -63.7925 -30.2314 -29.8681 -29.6730  18.1235  19.9912  20.6198  22.7494
    24.1912  27.1445  32.9547  39.1192

          k =-0.2000 0.2000 0.2000 (   288 PWs)   bands (ev):

   -63.8944 -29.9215 -29.6169 -29.6169  15.4701  20.1895  20.1895  22.9867
    23.3557  23.3557  42.3470  42.3470

          k =-0.2000 0.8000-0.4000 (   284 PWs)   bands (ev):

   -63.7893 -30.1703 -29.9431 -29.6870  18.7419  19.4748  20.4317  22.8040
    23.8250  27.5399  35.1660  35.9515

          k =-0.2000 0.7000-0.3000 (   284 PWs)   bands (ev):

   -63.7781 -30.1680 -30.0094 -29.6934  18.9495  19.8429  19.8665  23.1102
    23.8153  29.9520  32.3397  35.1857

          k =-0.3000 0.3000 0.2000 (   281 PWs)   bands (ev):

   -63.8535 -30.0806 -29.6940 -29.6130  17.1560  19.7173  19.9712  23.3203
    23.6097  24.4234  38.5523  40.7801

          k = 0.6000-0.6000 0.2000 (   281 PWs)   bands (ev):

   -63.8202 -30.1998 -29.7936 -29.6119  17.9253  19.4016  20.7372  23.4199
    23.7725  26.0825  34.4084  39.6778

          k = 0.6000-0.7000 0.3000 (   281 PWs)   bands (ev):

   -63.8236 -30.1523 -29.7743 -29.6634  18.4503  19.4895  19.7089  23.4668
    23.7500  26.3009  36.6983  37.5516

          k = 0.5000-0.5000 0.2000 (   282 PWs)   bands (ev):

   -63.8075 -30.2263 -29.8403 -29.6297  17.9467  19.2873  21.5155  23.4783
    23.8298  27.3824  32.0582  39.2014

          k = 0.5000-0.6000 0.3000 (   287 PWs)   bands (ev):

   -63.8050 -30.1580 -29.8946 -29.6888  18.6514  19.3374  20.3374  23.5857
    23.8219  28.5507  33.1397  36.3191

          k = 0.4000-0.6000 0.4000 (   291 PWs)   bands (ev):

   -63.7992 -30.0394 -30.0394 -29.7240  18.8648  19.7874  19.7874  23.7379
    23.7379  31.5045  31.5045  33.9320

          k = 0.0000 0.0000 0.4000 (   293 PWs)   bands (ev):

   -63.8665 -29.8785 -29.7343 -29.7343  16.2045  21.1569  21.1569  21.3466
    22.0522  24.2393  42.3888  44.6498

          k = 0.0000-0.1000 0.5000 (   286 PWs)   bands (ev):

   -63.8226 -30.0296 -29.7992 -29.7595  17.5583  20.2787  21.0611  21.8352
    22.9829  24.8151  39.4343  42.6466

          k = 0.0000-0.2000 0.6000 (   282 PWs)   bands (ev):

   -63.7870 -30.1758 -29.8570 -29.7572  18.2714  19.8689  20.8266  22.2971
    24.0471  26.4636  35.0250  41.3154

          k = 0.0000 0.7000-0.3000 (   284 PWs)   bands (ev):

   -63.7734 -30.2353 -29.8883 -29.7643  18.2905  19.9570  20.7292  22.3420
    24.5084  28.3661  32.1917  40.6512

          k =-0.1000-0.1000 0.6000 (   281 PWs)   bands (ev):

   -63.7849 -30.1072 -29.8951 -29.7894  18.4475  19.5135  21.2264  22.2486
    23.6204  26.3183  37.7753  38.3080

          k =-0.1000 0.8000-0.3000 (   280 PWs)   bands (ev):

   -63.7615 -30.1648 -29.9701 -29.7936  18.7053  19.2892  20.9501  22.7235
    24.1280  29.1050  33.6911  37.0824

          k =-0.2000 0.8000-0.2000 (   279 PWs)   bands (ev):

   -63.7518 -30.0979 -30.0979 -29.7828  18.9867  18.9867  20.7230  23.6327
    23.6327  32.3414  32.3414  34.0875

          k = 0.6000-0.6000 0.4000 (   282 PWs)   bands (ev):

   -63.8072 -30.1228 -29.7914 -29.7914  19.3315  19.3315  19.5212  23.7728
    23.7728  28.6142  35.5515  35.5515

          k = 0.5000-0.5000 0.4000 (   288 PWs)   bands (ev):

   -63.8010 -30.0457 -29.9285 -29.8079  19.2248  19.2861  19.9132  23.8023
    23.8638  31.0245  32.5785  35.1007

          k = 0.0000 0.0000 0.6000 (   277 PWs)   bands (ev):

   -63.7833 -30.0351 -29.8694 -29.8694  18.2805  19.5680  22.0024  22.0024
    23.0722  25.9268  40.4465  40.4465

          k = 0.0000-0.1000 0.7000 (   277 PWs)   bands (ev):

   -63.7513 -30.1077 -29.9450 -29.9058  18.5185  18.8863  22.1795  22.5335
    23.9101  28.1903  36.2757  38.5442

          k = 0.0000 0.8000-0.2000 (   276 PWs)   bands (ev):

   -63.7390 -30.1547 -29.9678 -29.9016  18.4312  18.7500  22.1530  22.6901
    24.3924  30.9654  32.7761  37.8558

          k =-0.1000 0.9000-0.2000 (   272 PWs)   bands (ev):

   -63.7304 -30.1118 -30.0411 -29.9004  18.4203  18.4211  22.2950  23.4605
    24.1161  31.1936  34.8320  35.3456

          k = 0.0000 0.0000 0.8000 (   269 PWs)   bands (ev):

   -63.7223 -30.0634 -30.0101 -30.0101  18.1732  18.2277  23.3948  23.3948
    23.9290  30.5726  36.5055  36.5055

          k = 0.0000 0.9000-0.1000 (   274 PWs)   bands (ev):

   -63.7112 -30.1029 -30.0391 -30.0249  17.9729  17.9914  23.5922  23.7597
    24.2992  33.2661  33.8382  35.6333

          k = 0.0000 0.0000-1.0000 (   266 PWs)   bands (ev):

   -63.7006 -30.0641 -30.0641 -30.0641  17.7387  17.7387  24.2640  24.2640
    24.2640  34.7427  34.7427  34.7427

     the Fermi energy is    22.1028 ev

!    total energy              =    -329.16252473 Ry
     Harris-Foulkes estimate   =    -329.16252470 Ry
     estimated scf accuracy    <          2.6E-09 Ry

     total all-electron energy =     -2545.459060 Ry

     The total energy is the sum of the following terms:

     one-electron contribution =     -95.82625191 Ry
     hartree contribution      =      60.55945159 Ry
     xc contribution           =     -34.93197471 Ry
     ewald contribution        =    -182.82640717 Ry
     one-center paw contrib.   =     -76.13743206 Ry
     smearing contrib. (-TS)   =       0.00008953 Ry

     total magnetization       =     1.93 Bohr mag/cell
     absolute magnetization    =     2.01 Bohr mag/cell

     convergence has been achieved in   8 iterations

     Writing output data file fe.save/
 
     init_run     :      0.74s CPU      0.80s WALL (       1 calls)
     electrons    :      8.31s CPU      8.71s WALL (       1 calls)

     Called by init_run:
     wfcinit      :      0.22s CPU      0.23s WALL (       1 calls)
     potinit      :      0.30s CPU      0.32s WALL (       1 calls)
     hinit0       :      0.20s CPU      0.22s WALL (       1 calls)

     Called by electrons:
     c_bands      :      4.88s CPU      5.17s WALL (       9 calls)
     sum_band     :      0.95s CPU      1.01s WALL (       9 calls)
     v_of_rho     :      0.13s CPU      0.13s WALL (       9 calls)
     newd         :      0.07s CPU      0.09s WALL (       9 calls)
     PAW_pot      :      2.54s CPU      2.60s WALL (       9 calls)
     mix_rho      :      0.01s CPU      0.01s WALL (       9 calls)

     Called by c_bands:
     init_us_2    :      0.12s CPU      0.12s WALL (    1786 calls)
     cegterg      :      4.56s CPU      4.83s WALL (     846 calls)

     Called by sum_band:
     sum_band:bec :      0.01s CPU      0.01s WALL (     846 calls)
     addusdens    :      0.14s CPU      0.14s WALL (       9 calls)

     Called by *egterg:
     h_psi        :      3.38s CPU      3.57s WALL (    2932 calls)
     s_psi        :      0.07s CPU      0.07s WALL (    2932 calls)
     g_psi        :      0.02s CPU      0.03s WALL (    1992 calls)
     cdiaghg      :      0.81s CPU      0.87s WALL (    2744 calls)

     Called by h_psi:
     h_psi:pot    :      3.37s CPU      3.56s WALL (    2932 calls)
     h_psi:calbec :      0.14s CPU      0.15s WALL (    2932 calls)
     vloc_psi     :      3.13s CPU      3.31s WALL (    2932 calls)
     add_vuspsi   :      0.08s CPU      0.08s WALL (    2932 calls)

     General routines
     calbec       :      0.17s CPU      0.19s WALL (    3778 calls)
     fft          :      0.07s CPU      0.07s WALL (     221 calls)
     ffts         :      0.00s CPU      0.00s WALL (      36 calls)
     fftw         :      3.49s CPU      3.69s WALL (   60856 calls)
     interpolate  :      0.01s CPU      0.01s WALL (      18 calls)
 
     Parallel routines
     fft_scatt_xy :      0.32s CPU      0.34s WALL (   61113 calls)
     fft_scatt_yz :      1.38s CPU      1.46s WALL (   61113 calls)
 
     PWSCF        :      9.94s CPU     10.45s WALL

 
   This run was terminated on:  22:51:45  29Jun2019            

=------------------------------------------------------------------------------=
   JOB DONE.
=------------------------------------------------------------------------------=
