
     Program PWSCF v.6.4.1 starts on 24Jun2019 at 21: 9: 2 

     This program is part of the open-source Quantum ESPRESSO suite
     for quantum simulation of materials; please cite
         "P. Giannozzi et al., J. Phys.:Condens. Matter 21 395502 (2009);
         "P. Giannozzi et al., J. Phys.:Condens. Matter 29 465901 (2017);
          URL http://www.quantum-espresso.org", 
     in publications or presentations arising from this work. More details at
     http://www.quantum-espresso.org/quote

     Parallel version (MPI), running on     2 processors

     MPI processes distributed on     1 nodes
     R & G space division:  proc/nbgrp/npool/nimage =       2
     Reading input from si.vc_relax.in

     Current dimensions of program PWSCF are:
     Max number of different atomic species (ntypx) = 10
     Max number of k-points (npk) =  40000
     Max angular momentum in pseudopotentials (lmaxx) =  3

     Subspace diagonalization in iterative solution of the eigenvalue problem:
     a serial algorithm will be used

 
     Parallelization info
     --------------------
     sticks:   dense  smooth     PW     G-vecs:    dense   smooth      PW
     Min         408     408    120                 7592     7592    1221
     Max         409     409    121                 7593     7593    1224
     Sum         817     817    241                15185    15185    2445
 


     bravais-lattice index     =            2
     lattice parameter (alat)  =      14.0000  a.u.
     unit-cell volume          =     686.0000 (a.u.)^3
     number of atoms/cell      =            2
     number of atomic types    =            1
     number of electrons       =         8.00
     number of Kohn-Sham states=            4
     kinetic-energy cutoff     =      30.0000  Ry
     charge density cutoff     =     120.0000  Ry
     convergence threshold     =      1.0E-07
     mixing beta               =       0.7000
     number of iterations used =            8  plain     mixing
     Exchange-correlation      = PBE ( 1  4  3  4 0 0)
     nstep                     =           50


     celldm(1)=  14.000000  celldm(2)=   0.000000  celldm(3)=   0.000000
     celldm(4)=   0.000000  celldm(5)=   0.000000  celldm(6)=   0.000000

     crystal axes: (cart. coord. in units of alat)
               a(1) = (  -0.500000   0.000000   0.500000 )  
               a(2) = (   0.000000   0.500000   0.500000 )  
               a(3) = (  -0.500000   0.500000   0.000000 )  

     reciprocal axes: (cart. coord. in units 2 pi/alat)
               b(1) = ( -1.000000 -1.000000  1.000000 )  
               b(2) = (  1.000000  1.000000  1.000000 )  
               b(3) = ( -1.000000  1.000000 -1.000000 )  


     PseudoPot. # 1 for Si read from file:
     /home/anonymous/quantumEspresso_2019/SSSP_precision_pseudos/Si.pbe-n-rrkjus_psl.1.0.0.UPF
     MD5 check sum: 0b0bb1205258b0d07b9f9672cf965d36
     Pseudo is Ultrasoft + core correction, Zval =  4.0
     Generated using "atomic" code by A. Dal Corso v.5.1
     Using radial grid of 1141 points,  6 beta functions with: 
                l(1) =   0
                l(2) =   0
                l(3) =   1
                l(4) =   1
                l(5) =   2
                l(6) =   2
     Q(r) pseudized with 0 coefficients 


     atomic species   valence    mass     pseudopotential
        Si             4.00    28.08550     Si( 1.00)

     48 Sym. Ops., with inversion, found (24 have fractional translation)



   Cartesian axes

     site n.     atom                  positions (alat units)
         1           Si  tau(   1) = (   0.0000000   0.0000000   0.0000000  )
         2           Si  tau(   2) = (   0.2500000   0.2500000   0.2500000  )

     number of k points=     8
                       cart. coord. in units 2pi/alat
        k(    1) = (   0.0000000   0.0000000   0.0000000), wk =   0.0312500
        k(    2) = (  -0.2500000   0.2500000  -0.2500000), wk =   0.2500000
        k(    3) = (   0.5000000  -0.5000000   0.5000000), wk =   0.1250000
        k(    4) = (   0.0000000   0.5000000   0.0000000), wk =   0.1875000
        k(    5) = (   0.7500000  -0.2500000   0.7500000), wk =   0.7500000
        k(    6) = (   0.5000000   0.0000000   0.5000000), wk =   0.3750000
        k(    7) = (   0.0000000  -1.0000000   0.0000000), wk =   0.0937500
        k(    8) = (  -0.5000000  -1.0000000   0.0000000), wk =   0.1875000

     Dense  grid:    15185 G-vectors     FFT dimensions: (  36,  36,  36)

     Estimated max dynamical RAM per process >      33.01 MB

     Estimated total dynamical RAM >      66.02 MB

     Check: negative core charge=   -0.000003

     Initial potential from superposition of free atoms

     starting charge    7.99888, renormalised to    8.00000
     Starting wfcs are    8 randomized atomic wfcs

     total cpu time spent up to now is        1.5 secs

     Self-consistent Calculation

     iteration #  1     ecut=    30.00 Ry     beta= 0.70
     Davidson diagonalization with overlap
     ethr =  1.00E-02,  avg # of iterations =  1.0

     Threshold (ethr) on eigenvalues was too large:
     Diagonalizing with lowered threshold

     Davidson diagonalization with overlap
     ethr =  1.37E-04,  avg # of iterations =  3.0

     total cpu time spent up to now is        1.9 secs

     total energy              =     -22.51796334 Ry
     Harris-Foulkes estimate   =     -22.51731448 Ry
     estimated scf accuracy    <       0.01259823 Ry

     iteration #  2     ecut=    30.00 Ry     beta= 0.70
     Davidson diagonalization with overlap
     ethr =  1.57E-04,  avg # of iterations =  1.0

     total cpu time spent up to now is        2.1 secs

     total energy              =     -22.51821859 Ry
     Harris-Foulkes estimate   =     -22.51814908 Ry
     estimated scf accuracy    <       0.00116888 Ry

     iteration #  3     ecut=    30.00 Ry     beta= 0.70
     Davidson diagonalization with overlap
     ethr =  1.46E-05,  avg # of iterations =  1.5

     total cpu time spent up to now is        2.3 secs

     total energy              =     -22.51828615 Ry
     Harris-Foulkes estimate   =     -22.51828885 Ry
     estimated scf accuracy    <       0.00000888 Ry

     iteration #  4     ecut=    30.00 Ry     beta= 0.70
     Davidson diagonalization with overlap
     c_bands:  1 eigenvalues not converged
     ethr =  1.11E-07,  avg # of iterations =  7.2

     total cpu time spent up to now is        2.6 secs

     total energy              =     -22.51862435 Ry
     Harris-Foulkes estimate   =     -22.51862607 Ry
     estimated scf accuracy    <       0.00007282 Ry

     iteration #  5     ecut=    30.00 Ry     beta= 0.70
     Davidson diagonalization with overlap
     ethr =  1.11E-07,  avg # of iterations =  1.6

     total cpu time spent up to now is        2.8 secs

     total energy              =     -22.51862823 Ry
     Harris-Foulkes estimate   =     -22.51862503 Ry
     estimated scf accuracy    <       0.00014745 Ry

     iteration #  6     ecut=    30.00 Ry     beta= 0.70
     Davidson diagonalization with overlap
     ethr =  1.11E-07,  avg # of iterations =  2.0

     total cpu time spent up to now is        3.0 secs

     total energy              =     -22.51862853 Ry
     Harris-Foulkes estimate   =     -22.51862939 Ry
     estimated scf accuracy    <       0.00003571 Ry

     iteration #  7     ecut=    30.00 Ry     beta= 0.70
     Davidson diagonalization with overlap
     ethr =  1.11E-07,  avg # of iterations =  2.0

     total cpu time spent up to now is        3.3 secs

     total energy              =     -22.51863023 Ry
     Harris-Foulkes estimate   =     -22.51863025 Ry
     estimated scf accuracy    <       0.00000011 Ry

     iteration #  8     ecut=    30.00 Ry     beta= 0.70
     Davidson diagonalization with overlap
     ethr =  1.40E-09,  avg # of iterations =  4.9

     total cpu time spent up to now is        3.5 secs

     End of self-consistent calculation

          k = 0.0000 0.0000 0.0000 (  1917 PWs)   bands (ev):

    -8.0081  -3.9986  -0.2014  -0.2014

          k =-0.2500 0.2500-0.2500 (  1910 PWs)   bands (ev):

    -7.7119  -4.7478  -0.4976  -0.4976

          k = 0.5000-0.5000 0.5000 (  1916 PWs)   bands (ev):

    -7.2517  -5.5693  -0.7072  -0.7072

          k = 0.0000 0.5000 0.0000 (  1924 PWs)   bands (ev):

    -7.5964  -4.9576  -0.8740  -0.8740

          k = 0.7500-0.2500 0.7500 (  1903 PWs)   bands (ev):

    -7.0447  -5.8133  -1.4770  -1.0336

          k = 0.5000 0.0000 0.5000 (  1915 PWs)   bands (ev):

    -7.2751  -5.4958  -1.4820  -0.7269

          k = 0.0000-1.0000 0.0000 (  1868 PWs)   bands (ev):

    -6.4684  -6.4684  -1.2825  -1.2825

          k =-0.5000-1.0000 0.0000 (  1888 PWs)   bands (ev):

    -6.4625  -6.4625  -1.4823  -1.4823

     highest occupied level (ev):    -0.2014

!    total energy              =     -22.51863032 Ry
     Harris-Foulkes estimate   =     -22.51863033 Ry
     estimated scf accuracy    <       0.00000004 Ry

     The total energy is the sum of the following terms:

     one-electron contribution =      -0.82189812 Ry
     hartree contribution      =       2.17842948 Ry
     xc contribution           =     -11.56248040 Ry
     ewald contribution        =     -12.31268128 Ry

     convergence has been achieved in   8 iterations

     Forces acting on atoms (cartesian axes, Ry/au):

     atom    1 type  1   force =     0.00000000    0.00000000   -0.00000000
     atom    2 type  1   force =     0.00000000   -0.00000000    0.00000000

     Total force =     0.000000     Total SCF correction =     0.000000


     Computing stress (Cartesian axis) and pressure

          total   stress  (Ry/bohr**3)                   (kbar)     P=  -89.21
  -0.00060643  -0.00000000  -0.00000000        -89.21     -0.00     -0.00
  -0.00000000  -0.00060643   0.00000000         -0.00    -89.21      0.00
  -0.00000000   0.00000000  -0.00060643         -0.00      0.00    -89.21


     BFGS Geometry Optimization

     number of scf cycles    =   1
     number of bfgs steps    =   0

     enthalpy new            =     -22.5186303228 Ry

     new trust radius        =       0.0794167595 bohr
ibrav =      2
 celldm(1) =     13.78774978
Input lattice vectors:
    -0.49241963     0.00000000     0.49241963
    -0.00000000     0.49241963     0.49241963
    -0.49241963     0.49241963     0.00000000
New lattice vectors in INITIAL alat:
    -0.49241963     0.00000000     0.49241963
     0.00000000     0.49241963     0.49241963
    -0.49241963     0.49241963     0.00000000
New lattice vectors in NEW alat (for information only):
    -0.50000000     0.00000000     0.50000000
     0.00000000     0.50000000     0.50000000
    -0.50000000     0.50000000     0.00000000
Discrepancy in bohr =     0.000000    0.000000    0.000000
     new conv_thr            =       0.0000001000 Ry

     new unit-cell volume =    655.26985 a.u.^3 (    97.10097 Ang^3 )
     density =      0.96059 g/cm^3

CELL_PARAMETERS (alat= 14.00000000)
  -0.492419635   0.000000000   0.492419635
   0.000000000   0.492419635   0.492419635
  -0.492419635   0.492419635   0.000000000

ATOMIC_POSITIONS (alat)
Si       0.000000000   0.000000000   0.000000000    0   0   0
Si       0.246209817   0.246209817   0.246209817    0   0   0



     Writing output data file si.save/
     NEW-OLD atomic charge density approx. for the potential

     Check: negative core charge=   -0.000002
     extrapolated charge    7.62488, renormalised to    8.00000

     total cpu time spent up to now is        4.9 secs

     Self-consistent Calculation

     iteration #  1     ecut=    30.00 Ry     beta= 0.70
     Davidson diagonalization with overlap
     ethr =  1.00E-06,  avg # of iterations =  5.0

     total cpu time spent up to now is        5.2 secs

     total energy              =     -22.53494210 Ry
     Harris-Foulkes estimate   =     -22.46553631 Ry
     estimated scf accuracy    <       0.00177300 Ry

     iteration #  2     ecut=    30.00 Ry     beta= 0.70
     Davidson diagonalization with overlap
     ethr =  2.22E-05,  avg # of iterations =  3.2

     total cpu time spent up to now is        5.4 secs

     total energy              =     -22.53787759 Ry
     Harris-Foulkes estimate   =     -22.53822140 Ry
     estimated scf accuracy    <       0.00103707 Ry

     iteration #  3     ecut=    30.00 Ry     beta= 0.70
     Davidson diagonalization with overlap
     ethr =  1.30E-05,  avg # of iterations =  1.0

     total cpu time spent up to now is        5.6 secs

     total energy              =     -22.53789207 Ry
     Harris-Foulkes estimate   =     -22.53791808 Ry
     estimated scf accuracy    <       0.00025188 Ry

     iteration #  4     ecut=    30.00 Ry     beta= 0.70
     Davidson diagonalization with overlap
     ethr =  3.15E-06,  avg # of iterations =  1.0

     total cpu time spent up to now is        5.8 secs

     total energy              =     -22.53783206 Ry
     Harris-Foulkes estimate   =     -22.53789729 Ry
     estimated scf accuracy    <       0.00018847 Ry

     iteration #  5     ecut=    30.00 Ry     beta= 0.70
     Davidson diagonalization with overlap
     ethr =  2.36E-06,  avg # of iterations =  2.4

     total cpu time spent up to now is        6.1 secs

     total energy              =     -22.53781277 Ry
     Harris-Foulkes estimate   =     -22.53792446 Ry
     estimated scf accuracy    <       0.00022691 Ry

     iteration #  6     ecut=    30.00 Ry     beta= 0.70
     Davidson diagonalization with overlap
     ethr =  2.36E-06,  avg # of iterations =  2.0

     total cpu time spent up to now is        6.3 secs

     total energy              =     -22.53783331 Ry
     Harris-Foulkes estimate   =     -22.53783348 Ry
     estimated scf accuracy    <       0.00000048 Ry

     iteration #  7     ecut=    30.00 Ry     beta= 0.70
     Davidson diagonalization with overlap
     ethr =  5.98E-09,  avg # of iterations =  3.2

     total cpu time spent up to now is        6.6 secs

     End of self-consistent calculation

          k = 0.0000 0.0000 0.0000 (  1917 PWs)   bands (ev):

    -7.9266  -3.5944  -0.0048  -0.0048

          k =-0.2538 0.2538-0.2538 (  1910 PWs)   bands (ev):

    -7.6122  -4.4401  -0.3173  -0.3173

          k = 0.5077-0.5077 0.5077 (  1916 PWs)   bands (ev):

    -7.1203  -5.3425  -0.5368  -0.5368

          k = 0.0000 0.5077 0.0000 (  1924 PWs)   bands (ev):

    -7.4901  -4.6647  -0.7166  -0.7166

          k = 0.7615-0.2538 0.7615 (  1903 PWs)   bands (ev):

    -6.9023  -5.5926  -1.3552  -0.8830

          k = 0.5077 0.0000 0.5077 (  1915 PWs)   bands (ev):

    -7.1477  -5.2515  -1.3630  -0.5585

          k = 0.0000-1.0154 0.0000 (  1868 PWs)   bands (ev):

    -6.2902  -6.2902  -1.1454  -1.1454

          k =-0.5077-1.0154 0.0000 (  1888 PWs)   bands (ev):

    -6.2830  -6.2830  -1.3627  -1.3627

     highest occupied level (ev):    -0.0048

!    total energy              =     -22.53783464 Ry
     Harris-Foulkes estimate   =     -22.53783459 Ry
     estimated scf accuracy    <       0.00000008 Ry

     The total energy is the sum of the following terms:

     one-electron contribution =      -0.56600318 Ry
     hartree contribution      =       2.11451628 Ry
     xc contribution           =     -11.58412363 Ry
     ewald contribution        =     -12.50222411 Ry

     convergence has been achieved in   7 iterations

     Forces acting on atoms (cartesian axes, Ry/au):

     atom    1 type  1   force =     0.00000000    0.00000000    0.00000000
     atom    2 type  1   force =    -0.00000000   -0.00000000    0.00000000

     Total force =     0.000000     Total SCF correction =     0.000000


     Computing stress (Cartesian axis) and pressure

          total   stress  (Ry/bohr**3)                   (kbar)     P=  -94.70
  -0.00064377  -0.00000000  -0.00000000        -94.70     -0.00     -0.00
  -0.00000000  -0.00064377   0.00000000         -0.00    -94.70      0.00
  -0.00000000   0.00000000  -0.00064377         -0.00      0.00    -94.70


     number of scf cycles    =   2
     number of bfgs steps    =   1

     enthalpy old            =     -22.5186303228 Ry
     enthalpy new            =     -22.5378346367 Ry

     CASE: enthalpy_new < enthalpy_old


     WARNING: bfgs curvature condition failed, Theta= 0.777
     new trust radius        =       0.1182186785 bohr
ibrav =      2
 celldm(1) =     13.46937445
Input lattice vectors:
    -0.48104909    -0.00000000     0.48104909
     0.00000000     0.48104909     0.48104909
    -0.48104909     0.48104909     0.00000000
New lattice vectors in INITIAL alat:
    -0.48104909     0.00000000     0.48104909
     0.00000000     0.48104909     0.48104909
    -0.48104909     0.48104909     0.00000000
New lattice vectors in NEW alat (for information only):
    -0.50000000     0.00000000     0.50000000
     0.00000000     0.50000000     0.50000000
    -0.50000000     0.50000000     0.00000000
Discrepancy in bohr =     0.000000    0.000000    0.000000
     new conv_thr            =       0.0000000010 Ry

     new unit-cell volume =    610.91711 a.u.^3 (    90.52857 Ang^3 )
     density =      1.03033 g/cm^3

CELL_PARAMETERS (alat= 14.00000000)
  -0.481049087   0.000000000   0.481049087
   0.000000000   0.481049087   0.481049087
  -0.481049087   0.481049087   0.000000000

ATOMIC_POSITIONS (alat)
Si       0.000000000   0.000000000   0.000000000    0   0   0
Si       0.240524544   0.240524544   0.240524544    0   0   0



     Writing output data file si.save/
     NEW-OLD atomic charge density approx. for the potential

     Check: negative core charge=   -0.000002
     extrapolated charge    7.41928, renormalised to    8.00000

     total cpu time spent up to now is        8.0 secs

     Self-consistent Calculation

     iteration #  1     ecut=    30.00 Ry     beta= 0.70
     Davidson diagonalization with overlap
     ethr =  1.00E-06,  avg # of iterations =  5.5

     total cpu time spent up to now is        8.3 secs

     total energy              =     -22.56112443 Ry
     Harris-Foulkes estimate   =     -22.43808350 Ry
     estimated scf accuracy    <       0.00422972 Ry

     iteration #  2     ecut=    30.00 Ry     beta= 0.70
     Davidson diagonalization with overlap
     ethr =  5.29E-05,  avg # of iterations =  3.2

     total cpu time spent up to now is        8.6 secs

     total energy              =     -22.56776039 Ry
     Harris-Foulkes estimate   =     -22.56849976 Ry
     estimated scf accuracy    <       0.00224571 Ry

     iteration #  3     ecut=    30.00 Ry     beta= 0.70
     Davidson diagonalization with overlap
     ethr =  2.81E-05,  avg # of iterations =  1.0

     total cpu time spent up to now is        8.8 secs

     total energy              =     -22.56763032 Ry
     Harris-Foulkes estimate   =     -22.56785161 Ry
     estimated scf accuracy    <       0.00052934 Ry

     iteration #  4     ecut=    30.00 Ry     beta= 0.70
     Davidson diagonalization with overlap
     ethr =  6.62E-06,  avg # of iterations =  1.5

     total cpu time spent up to now is        9.0 secs

     total energy              =     -22.56766579 Ry
     Harris-Foulkes estimate   =     -22.56767416 Ry
     estimated scf accuracy    <       0.00001928 Ry

     iteration #  5     ecut=    30.00 Ry     beta= 0.70
     Davidson diagonalization with overlap
     ethr =  2.41E-07,  avg # of iterations =  3.5

     total cpu time spent up to now is        9.3 secs

     total energy              =     -22.56767998 Ry
     Harris-Foulkes estimate   =     -22.56769129 Ry
     estimated scf accuracy    <       0.00002654 Ry

     iteration #  6     ecut=    30.00 Ry     beta= 0.70
     Davidson diagonalization with overlap
     ethr =  2.41E-07,  avg # of iterations =  1.4

     total cpu time spent up to now is        9.5 secs

     total energy              =     -22.56768063 Ry
     Harris-Foulkes estimate   =     -22.56768153 Ry
     estimated scf accuracy    <       0.00000176 Ry

     iteration #  7     ecut=    30.00 Ry     beta= 0.70
     Davidson diagonalization with overlap
     ethr =  2.20E-08,  avg # of iterations =  3.1

     total cpu time spent up to now is        9.7 secs

     total energy              =     -22.56768108 Ry
     Harris-Foulkes estimate   =     -22.56768120 Ry
     estimated scf accuracy    <       0.00000024 Ry

     iteration #  8     ecut=    30.00 Ry     beta= 0.70
     Davidson diagonalization with overlap
     ethr =  3.03E-09,  avg # of iterations =  2.0

     total cpu time spent up to now is       10.0 secs

     total energy              =     -22.56768111 Ry
     Harris-Foulkes estimate   =     -22.56768114 Ry
     estimated scf accuracy    <       0.00000005 Ry

     iteration #  9     ecut=    30.00 Ry     beta= 0.70
     Davidson diagonalization with overlap
     ethr =  6.57E-10,  avg # of iterations =  2.0

     total cpu time spent up to now is       10.2 secs

     total energy              =     -22.56768112 Ry
     Harris-Foulkes estimate   =     -22.56768112 Ry
     estimated scf accuracy    <       0.00000001 Ry

     iteration # 10     ecut=    30.00 Ry     beta= 0.70
     Davidson diagonalization with overlap
     ethr =  1.64E-10,  avg # of iterations =  1.4

     total cpu time spent up to now is       10.4 secs

     total energy              =     -22.56768112 Ry
     Harris-Foulkes estimate   =     -22.56768112 Ry
     estimated scf accuracy    <          1.6E-09 Ry

     iteration # 11     ecut=    30.00 Ry     beta= 0.70
     Davidson diagonalization with overlap
     ethr =  1.98E-11,  avg # of iterations =  2.2

     total cpu time spent up to now is       10.6 secs

     End of self-consistent calculation

          k = 0.0000 0.0000 0.0000 (  1917 PWs)   bands (ev):

    -7.7982  -2.9337   0.3147   0.3147

          k =-0.2598 0.2598-0.2598 (  1910 PWs)   bands (ev):

    -7.4548  -3.9533  -0.0242  -0.0242

          k = 0.5197-0.5197 0.5197 (  1916 PWs)   bands (ev):

    -6.9114  -4.9902  -0.2593  -0.2593

          k = 0.0000 0.5197 0.0000 (  1924 PWs)   bands (ev):

    -7.3223  -4.1987  -0.4608  -0.4608

          k = 0.7795-0.2598 0.7795 (  1903 PWs)   bands (ev):

    -6.6764  -5.2440  -1.1572  -0.6378

          k = 0.5197 0.0000 0.5197 (  1915 PWs)   bands (ev):

    -6.9457  -4.8654  -1.1699  -0.2845

          k = 0.0000-1.0394 0.0000 (  1868 PWs)   bands (ev):

    -6.0080  -6.0080  -0.9218  -0.9218

          k =-0.5197-1.0394 0.0000 (  1888 PWs)   bands (ev):

    -5.9980  -5.9980  -1.1691  -1.1691

     highest occupied level (ev):     0.3147

!    total energy              =     -22.56768112 Ry
     Harris-Foulkes estimate   =     -22.56768112 Ry
     estimated scf accuracy    <          4.1E-12 Ry

     The total energy is the sum of the following terms:

     one-electron contribution =      -0.16901629 Ry
     hartree contribution      =       2.01865052 Ry
     xc contribution           =     -11.61957644 Ry
     ewald contribution        =     -12.79773891 Ry

     convergence has been achieved in  11 iterations

     Forces acting on atoms (cartesian axes, Ry/au):

     atom    1 type  1   force =     0.00000000    0.00000000    0.00000000
     atom    2 type  1   force =    -0.00000000    0.00000000   -0.00000000

     Total force =     0.000000     Total SCF correction =     0.000000


     Computing stress (Cartesian axis) and pressure

          total   stress  (Ry/bohr**3)                   (kbar)     P= -103.35
  -0.00070258   0.00000000   0.00000000       -103.35      0.00      0.00
   0.00000000  -0.00070258  -0.00000000          0.00   -103.35     -0.00
   0.00000000  -0.00000000  -0.00070258          0.00     -0.00   -103.35


     number of scf cycles    =   3
     number of bfgs steps    =   2

     enthalpy old            =     -22.5378346367 Ry
     enthalpy new            =     -22.5676811191 Ry

     CASE: enthalpy_new < enthalpy_old


     WARNING: bfgs curvature condition failed, Theta= 0.457
     new trust radius        =       0.1752687043 bohr
ibrav =      2
 celldm(1) =     12.99181145
Input lattice vectors:
    -0.46399327     0.00000000     0.46399327
    -0.00000000     0.46399327     0.46399327
    -0.46399327     0.46399327     0.00000000
New lattice vectors in INITIAL alat:
    -0.46399327     0.00000000     0.46399327
     0.00000000     0.46399327     0.46399327
    -0.46399327     0.46399327     0.00000000
New lattice vectors in NEW alat (for information only):
    -0.50000000     0.00000000     0.50000000
     0.00000000     0.50000000     0.50000000
    -0.50000000     0.50000000     0.00000000
Discrepancy in bohr =     0.000000    0.000000    0.000000
     new conv_thr            =       0.0000000010 Ry

     new unit-cell volume =    548.21276 a.u.^3 (    81.23675 Ang^3 )
     density =      1.14818 g/cm^3

CELL_PARAMETERS (alat= 14.00000000)
  -0.463993266   0.000000000   0.463993266
   0.000000000   0.463993266   0.463993266
  -0.463993266   0.463993266   0.000000000

ATOMIC_POSITIONS (alat)
Si       0.000000000   0.000000000   0.000000000    0   0   0
Si       0.231996633   0.231996633   0.231996633    0   0   0



     Writing output data file si.save/
     NEW-OLD atomic charge density approx. for the potential

     Check: negative core charge=   -0.000003
     extrapolated charge    7.08509, renormalised to    8.00000

     total cpu time spent up to now is       12.0 secs

     Self-consistent Calculation

     iteration #  1     ecut=    30.00 Ry     beta= 0.70
     Davidson diagonalization with overlap
     ethr =  1.00E-06,  avg # of iterations =  6.2

     total cpu time spent up to now is       12.3 secs

     total energy              =     -22.59951082 Ry
     Harris-Foulkes estimate   =     -22.36854674 Ry
     estimated scf accuracy    <       0.01062939 Ry

     iteration #  2     ecut=    30.00 Ry     beta= 0.70
     Davidson diagonalization with overlap
     ethr =  1.33E-04,  avg # of iterations =  3.2

     total cpu time spent up to now is       12.6 secs

     total energy              =     -22.61461946 Ry
     Harris-Foulkes estimate   =     -22.61616974 Ry
     estimated scf accuracy    <       0.00476644 Ry

     iteration #  3     ecut=    30.00 Ry     beta= 0.70
     Davidson diagonalization with overlap
     ethr =  5.96E-05,  avg # of iterations =  1.0

     total cpu time spent up to now is       12.8 secs

     total energy              =     -22.61437335 Ry
     Harris-Foulkes estimate   =     -22.61482154 Ry
     estimated scf accuracy    <       0.00106723 Ry

     iteration #  4     ecut=    30.00 Ry     beta= 0.70
     Davidson diagonalization with overlap
     ethr =  1.33E-05,  avg # of iterations =  2.0

     total cpu time spent up to now is       13.0 secs

     total energy              =     -22.61444010 Ry
     Harris-Foulkes estimate   =     -22.61469650 Ry
     estimated scf accuracy    <       0.00059398 Ry

     iteration #  5     ecut=    30.00 Ry     beta= 0.70
     Davidson diagonalization with overlap
     ethr =  7.42E-06,  avg # of iterations =  1.2

     total cpu time spent up to now is       13.2 secs

     total energy              =     -22.61448696 Ry
     Harris-Foulkes estimate   =     -22.61448702 Ry
     estimated scf accuracy    <       0.00000853 Ry

     iteration #  6     ecut=    30.00 Ry     beta= 0.70
     Davidson diagonalization with overlap
     ethr =  1.07E-07,  avg # of iterations =  3.2

     total cpu time spent up to now is       13.5 secs

     total energy              =     -22.61449397 Ry
     Harris-Foulkes estimate   =     -22.61449285 Ry
     estimated scf accuracy    <       0.00000560 Ry

     iteration #  7     ecut=    30.00 Ry     beta= 0.70
     Davidson diagonalization with overlap
     ethr =  7.00E-08,  avg # of iterations =  1.0

     total cpu time spent up to now is       13.7 secs

     total energy              =     -22.61449277 Ry
     Harris-Foulkes estimate   =     -22.61449403 Ry
     estimated scf accuracy    <       0.00000875 Ry

     iteration #  8     ecut=    30.00 Ry     beta= 0.70
     Davidson diagonalization with overlap
     ethr =  7.00E-08,  avg # of iterations =  1.0

     total cpu time spent up to now is       13.8 secs

     total energy              =     -22.61449309 Ry
     Harris-Foulkes estimate   =     -22.61449283 Ry
     estimated scf accuracy    <       0.00000911 Ry

     iteration #  9     ecut=    30.00 Ry     beta= 0.70
     Davidson diagonalization with overlap
     ethr =  7.00E-08,  avg # of iterations =  1.0

     total cpu time spent up to now is       14.0 secs

     total energy              =     -22.61450327 Ry
     Harris-Foulkes estimate   =     -22.61449313 Ry
     estimated scf accuracy    <       0.00001311 Ry

     iteration # 10     ecut=    30.00 Ry     beta= 0.70
     Davidson diagonalization with overlap
     ethr =  7.00E-08,  avg # of iterations =  2.1

     total cpu time spent up to now is       14.3 secs

     total energy              =     -22.61449281 Ry
     Harris-Foulkes estimate   =     -22.61450605 Ry
     estimated scf accuracy    <       0.00008593 Ry

     iteration # 11     ecut=    30.00 Ry     beta= 0.70
     Davidson diagonalization with overlap
     ethr =  7.00E-08,  avg # of iterations =  2.0

     total cpu time spent up to now is       14.5 secs

     total energy              =     -22.61449784 Ry
     Harris-Foulkes estimate   =     -22.61449472 Ry
     estimated scf accuracy    <       0.00002043 Ry

     iteration # 12     ecut=    30.00 Ry     beta= 0.70
     Davidson diagonalization with overlap
     ethr =  7.00E-08,  avg # of iterations =  1.0

     total cpu time spent up to now is       14.7 secs

     total energy              =     -22.61449421 Ry
     Harris-Foulkes estimate   =     -22.61449807 Ry
     estimated scf accuracy    <       0.00003833 Ry

     iteration # 13     ecut=    30.00 Ry     beta= 0.70
     Davidson diagonalization with overlap
     ethr =  7.00E-08,  avg # of iterations =  1.0

     total cpu time spent up to now is       14.9 secs

     total energy              =     -22.61448880 Ry
     Harris-Foulkes estimate   =     -22.61449444 Ry
     estimated scf accuracy    <       0.00002000 Ry

     iteration # 14     ecut=    30.00 Ry     beta= 0.70
     Davidson diagonalization with overlap
     ethr =  7.00E-08,  avg # of iterations =  2.0

     total cpu time spent up to now is       15.1 secs

     total energy              =     -22.61449110 Ry
     Harris-Foulkes estimate   =     -22.61449117 Ry
     estimated scf accuracy    <       0.00000023 Ry

     iteration # 15     ecut=    30.00 Ry     beta= 0.70
     Davidson diagonalization with overlap
     ethr =  2.83E-09,  avg # of iterations =  3.0

     total cpu time spent up to now is       15.4 secs

     total energy              =     -22.61449119 Ry
     Harris-Foulkes estimate   =     -22.61449119 Ry
     estimated scf accuracy    <          1.5E-09 Ry

     iteration # 16     ecut=    30.00 Ry     beta= 0.70
     Davidson diagonalization with overlap
     ethr =  1.91E-11,  avg # of iterations =  3.6

     total cpu time spent up to now is       15.7 secs

     total energy              =     -22.61449119 Ry
     Harris-Foulkes estimate   =     -22.61449120 Ry
     estimated scf accuracy    <          9.8E-09 Ry

     iteration # 17     ecut=    30.00 Ry     beta= 0.70
     Davidson diagonalization with overlap
     ethr =  1.91E-11,  avg # of iterations =  2.0

     total cpu time spent up to now is       16.0 secs

     total energy              =     -22.61449119 Ry
     Harris-Foulkes estimate   =     -22.61449119 Ry
     estimated scf accuracy    <          2.2E-09 Ry

     iteration # 18     ecut=    30.00 Ry     beta= 0.70
     Davidson diagonalization with overlap
     ethr =  1.91E-11,  avg # of iterations =  1.0

     total cpu time spent up to now is       16.2 secs

     total energy              =     -22.61449119 Ry
     Harris-Foulkes estimate   =     -22.61449119 Ry
     estimated scf accuracy    <          4.9E-09 Ry

     iteration # 19     ecut=    30.00 Ry     beta= 0.70
     Davidson diagonalization with overlap
     ethr =  1.91E-11,  avg # of iterations =  1.0

     total cpu time spent up to now is       16.4 secs

     total energy              =     -22.61449119 Ry
     Harris-Foulkes estimate   =     -22.61449119 Ry
     estimated scf accuracy    <          4.3E-09 Ry

     iteration # 20     ecut=    30.00 Ry     beta= 0.70
     Davidson diagonalization with overlap
     ethr =  1.91E-11,  avg # of iterations =  1.0

     total cpu time spent up to now is       16.6 secs

     total energy              =     -22.61449120 Ry
     Harris-Foulkes estimate   =     -22.61449119 Ry
     estimated scf accuracy    <          5.2E-09 Ry

     iteration # 21     ecut=    30.00 Ry     beta= 0.70
     Davidson diagonalization with overlap
     ethr =  1.91E-11,  avg # of iterations =  1.0

     total cpu time spent up to now is       16.8 secs

     total energy              =     -22.61449120 Ry
     Harris-Foulkes estimate   =     -22.61449120 Ry
     estimated scf accuracy    <          6.3E-09 Ry

     iteration # 22     ecut=    30.00 Ry     beta= 0.70
     Davidson diagonalization with overlap
     ethr =  1.91E-11,  avg # of iterations =  1.0

     total cpu time spent up to now is       17.1 secs

     total energy              =     -22.61449119 Ry
     Harris-Foulkes estimate   =     -22.61449120 Ry
     estimated scf accuracy    <          6.6E-09 Ry

     iteration # 23     ecut=    30.00 Ry     beta= 0.70
     Davidson diagonalization with overlap
     ethr =  1.91E-11,  avg # of iterations =  3.5

     total cpu time spent up to now is       17.4 secs

     total energy              =     -22.61449120 Ry
     Harris-Foulkes estimate   =     -22.61449120 Ry
     estimated scf accuracy    <          8.9E-09 Ry

     iteration # 24     ecut=    30.00 Ry     beta= 0.70
     Davidson diagonalization with overlap
     ethr =  1.91E-11,  avg # of iterations =  1.0

     total cpu time spent up to now is       17.6 secs

     total energy              =     -22.61449119 Ry
     Harris-Foulkes estimate   =     -22.61449120 Ry
     estimated scf accuracy    <          7.3E-09 Ry

     iteration # 25     ecut=    30.00 Ry     beta= 0.70
     Davidson diagonalization with overlap
     ethr =  1.91E-11,  avg # of iterations =  2.5

     total cpu time spent up to now is       17.8 secs

     End of self-consistent calculation

          k = 0.0000 0.0000 0.0000 (  1917 PWs)   bands (ev):

    -7.5903  -1.8072   0.8555   0.8555

          k =-0.2694 0.2694-0.2694 (  1910 PWs)   bands (ev):

    -7.1993  -3.1713   0.4729   0.4729

          k = 0.5388-0.5388 0.5388 (  1916 PWs)   bands (ev):

    -6.5684  -4.4390   0.2126   0.2126

          k = 0.0000 0.5388 0.0000 (  1924 PWs)   bands (ev):

    -7.0499  -3.4392  -0.0268  -0.0268

          k = 0.8082-0.2694 0.8082 (  1903 PWs)   bands (ev):

    -6.3074  -4.6807  -0.8200  -0.2210

          k = 0.5388 0.0000 0.5388 (  1915 PWs)   bands (ev):

    -6.6162  -4.2420  -0.8423   0.1810

          k = 0.0000-1.0776 0.0000 (  1868 PWs)   bands (ev):

    -5.5485  -5.5485  -0.5409  -0.5409

          k =-0.5388-1.0776-0.0000 (  1888 PWs)   bands (ev):

    -5.5329  -5.5329  -0.8418  -0.8418

     highest occupied level (ev):     0.8555

!    total energy              =     -22.61449119 Ry
     Harris-Foulkes estimate   =     -22.61449119 Ry
     estimated scf accuracy    <          6.9E-11 Ry

     The total energy is the sum of the following terms:

     one-electron contribution =       0.45821860 Ry
     hartree contribution      =       1.87642303 Ry
     xc contribution           =     -11.68096479 Ry
     ewald contribution        =     -13.26816803 Ry

     convergence has been achieved in  25 iterations

     Forces acting on atoms (cartesian axes, Ry/au):

     atom    1 type  1   force =     0.00000000    0.00000000   -0.00000000
     atom    2 type  1   force =    -0.00000000   -0.00000000    0.00000000

     Total force =     0.000000     Total SCF correction =     0.000000


     Computing stress (Cartesian axis) and pressure

          total   stress  (Ry/bohr**3)                   (kbar)     P= -116.39
  -0.00079121   0.00000000   0.00000000       -116.39      0.00      0.00
   0.00000000  -0.00079121   0.00000000          0.00   -116.39      0.00
   0.00000000   0.00000000  -0.00079121          0.00      0.00   -116.39


     number of scf cycles    =   4
     number of bfgs steps    =   3

     enthalpy old            =     -22.5676811191 Ry
     enthalpy new            =     -22.6144911947 Ry

     CASE: enthalpy_new < enthalpy_old


     WARNING: bfgs curvature condition failed, Theta= 0.688
     uphill step: resetting bfgs history

     new trust radius        =       0.0926268414 bohr
ibrav =      2
 celldm(1) =     12.73482987
Input lattice vectors:
    -0.45481535     0.00000000     0.45481535
     0.00000000     0.45481535     0.45481535
    -0.45481535     0.45481535     0.00000000
New lattice vectors in INITIAL alat:
    -0.45481535     0.00000000     0.45481535
     0.00000000     0.45481535     0.45481535
    -0.45481535     0.45481535     0.00000000
New lattice vectors in NEW alat (for information only):
    -0.50000000     0.00000000     0.50000000
     0.00000000     0.50000000     0.50000000
    -0.50000000     0.50000000     0.00000000
Discrepancy in bohr =     0.000000    0.000000    0.000000
     new conv_thr            =       0.0000000010 Ry

     new unit-cell volume =    516.32060 a.u.^3 (    76.51082 Ang^3 )
     density =      1.21910 g/cm^3

CELL_PARAMETERS (alat= 14.00000000)
  -0.454815352   0.000000000   0.454815352
   0.000000000   0.454815352   0.454815352
  -0.454815352   0.454815352   0.000000000

ATOMIC_POSITIONS (alat)
Si       0.000000000   0.000000000   0.000000000    0   0   0
Si       0.227407676   0.227407676   0.227407676    0   0   0



     Writing output data file si.save/
     NEW-OLD atomic charge density approx. for the potential

     Check: negative core charge=   -0.000003
     extrapolated charge    7.50592, renormalised to    8.00000

     total cpu time spent up to now is       19.2 secs

     Self-consistent Calculation

     iteration #  1     ecut=    30.00 Ry     beta= 0.70
     Davidson diagonalization with overlap
     ethr =  1.00E-06,  avg # of iterations =  5.5

     total cpu time spent up to now is       19.5 secs

     total energy              =     -22.63618773 Ry
     Harris-Foulkes estimate   =     -22.49594296 Ry
     estimated scf accuracy    <       0.00266241 Ry

     iteration #  2     ecut=    30.00 Ry     beta= 0.70
     Davidson diagonalization with overlap
     ethr =  3.33E-05,  avg # of iterations =  3.2

     total cpu time spent up to now is       19.8 secs

     total energy              =     -22.64051166 Ry
     Harris-Foulkes estimate   =     -22.64097076 Ry
     estimated scf accuracy    <       0.00146902 Ry

     iteration #  3     ecut=    30.00 Ry     beta= 0.70
     Davidson diagonalization with overlap
     ethr =  1.84E-05,  avg # of iterations =  1.0

     total cpu time spent up to now is       20.0 secs

     total energy              =     -22.64039648 Ry
     Harris-Foulkes estimate   =     -22.64056519 Ry
     estimated scf accuracy    <       0.00036284 Ry

     iteration #  4     ecut=    30.00 Ry     beta= 0.70
     Davidson diagonalization with overlap
     ethr =  4.54E-06,  avg # of iterations =  2.0

     total cpu time spent up to now is       20.2 secs

     total energy              =     -22.64044418 Ry
     Harris-Foulkes estimate   =     -22.64046756 Ry
     estimated scf accuracy    <       0.00005632 Ry

     iteration #  5     ecut=    30.00 Ry     beta= 0.70
     Davidson diagonalization with overlap
     ethr =  7.04E-07,  avg # of iterations =  1.6

     total cpu time spent up to now is       20.4 secs

     total energy              =     -22.64044959 Ry
     Harris-Foulkes estimate   =     -22.64044964 Ry
     estimated scf accuracy    <       0.00000132 Ry

     iteration #  6     ecut=    30.00 Ry     beta= 0.70
     Davidson diagonalization with overlap
     ethr =  1.65E-08,  avg # of iterations =  3.2

     total cpu time spent up to now is       20.7 secs

     total energy              =     -22.64045016 Ry
     Harris-Foulkes estimate   =     -22.64045018 Ry
     estimated scf accuracy    <       0.00000092 Ry

     iteration #  7     ecut=    30.00 Ry     beta= 0.70
     Davidson diagonalization with overlap
     ethr =  1.14E-08,  avg # of iterations =  1.0

     total cpu time spent up to now is       20.9 secs

     total energy              =     -22.64044985 Ry
     Harris-Foulkes estimate   =     -22.64045016 Ry
     estimated scf accuracy    <       0.00000083 Ry

     iteration #  8     ecut=    30.00 Ry     beta= 0.70
     Davidson diagonalization with overlap
     ethr =  1.04E-08,  avg # of iterations =  1.0

     total cpu time spent up to now is       21.1 secs

     total energy              =     -22.64044989 Ry
     Harris-Foulkes estimate   =     -22.64044989 Ry
     estimated scf accuracy    <       0.00000004 Ry

     iteration #  9     ecut=    30.00 Ry     beta= 0.70
     Davidson diagonalization with overlap
     ethr =  4.59E-10,  avg # of iterations =  2.2

     total cpu time spent up to now is       21.3 secs

     total energy              =     -22.64044989 Ry
     Harris-Foulkes estimate   =     -22.64044990 Ry
     estimated scf accuracy    <       0.00000002 Ry

     iteration # 10     ecut=    30.00 Ry     beta= 0.70
     Davidson diagonalization with overlap
     ethr =  2.21E-10,  avg # of iterations =  1.0

     total cpu time spent up to now is       21.5 secs

     total energy              =     -22.64044989 Ry
     Harris-Foulkes estimate   =     -22.64044989 Ry
     estimated scf accuracy    <          2.9E-09 Ry

     iteration # 11     ecut=    30.00 Ry     beta= 0.70
     Davidson diagonalization with overlap
     ethr =  3.64E-11,  avg # of iterations =  1.4

     total cpu time spent up to now is       21.7 secs

     total energy              =     -22.64044989 Ry
     Harris-Foulkes estimate   =     -22.64044989 Ry
     estimated scf accuracy    <          2.6E-09 Ry

     iteration # 12     ecut=    30.00 Ry     beta= 0.70
     Davidson diagonalization with overlap
     ethr =  3.19E-11,  avg # of iterations =  1.0

     total cpu time spent up to now is       21.9 secs

     End of self-consistent calculation

          k = 0.0000 0.0000 0.0000 (  1917 PWs)   bands (ev):

    -7.4697  -1.1244   1.1810   1.1810

          k =-0.2748 0.2748-0.2748 (  1910 PWs)   bands (ev):

    -7.0508  -2.7277   0.7726   0.7726

          k = 0.5497-0.5497 0.5497 (  1916 PWs)   bands (ev):

    -6.3670  -4.1327   0.4979   0.4979

          k = 0.0000 0.5497 0.0000 (  1924 PWs)   bands (ev):

    -6.8917  -2.9993   0.2347   0.2347

          k = 0.8245-0.2748 0.8245 (  1903 PWs)   bands (ev):

    -6.0918  -4.3563  -0.6160   0.0309

          k = 0.5497 0.0000 0.5497 (  1915 PWs)   bands (ev):

    -6.4241  -3.8833  -0.6449   0.4621

          k = 0.0000-1.0993 0.0000 (  1868 PWs)   bands (ev):

    -5.2814  -5.2814  -0.3104  -0.3104

          k =-0.5497-1.0993-0.0000 (  1888 PWs)   bands (ev):

    -5.2616  -5.2616  -0.6453  -0.6453

     highest occupied level (ev):     1.1810

!    total energy              =     -22.64044989 Ry
     Harris-Foulkes estimate   =     -22.64044989 Ry
     estimated scf accuracy    <          2.8E-10 Ry

     The total energy is the sum of the following terms:

     one-electron contribution =       0.81323328 Ry
     hartree contribution      =       1.80076243 Ry
     xc contribution           =     -11.71853353 Ry
     ewald contribution        =     -13.53591208 Ry

     convergence has been achieved in  12 iterations

     Forces acting on atoms (cartesian axes, Ry/au):

     atom    1 type  1   force =     0.00000000    0.00000000    0.00000000
     atom    2 type  1   force =     0.00000000    0.00000000    0.00000000

     Total force =     0.000000     Total SCF correction =     0.000000


     Computing stress (Cartesian axis) and pressure

          total   stress  (Ry/bohr**3)                   (kbar)     P= -123.04
  -0.00083639  -0.00000000  -0.00000000       -123.04     -0.00     -0.00
  -0.00000000  -0.00083639   0.00000000         -0.00   -123.04      0.00
  -0.00000000   0.00000000  -0.00083639         -0.00      0.00   -123.04


     number of scf cycles    =   5
     number of bfgs steps    =   4

     enthalpy old            =     -22.6144911947 Ry
     enthalpy new            =     -22.6404498926 Ry

     CASE: enthalpy_new < enthalpy_old


     WARNING: bfgs curvature condition failed, Theta= 0.788
     new trust radius        =       0.1375592607 bohr
ibrav =      2
 celldm(1) =     12.34935749
Input lattice vectors:
    -0.44104848    -0.00000000     0.44104848
     0.00000000     0.44104848     0.44104848
    -0.44104848     0.44104848    -0.00000000
New lattice vectors in INITIAL alat:
    -0.44104848     0.00000000     0.44104848
     0.00000000     0.44104848     0.44104848
    -0.44104848     0.44104848     0.00000000
New lattice vectors in NEW alat (for information only):
    -0.50000000     0.00000000     0.50000000
     0.00000000     0.50000000     0.50000000
    -0.50000000     0.50000000     0.00000000
Discrepancy in bohr =     0.000000    0.000000    0.000000
     new conv_thr            =       0.0000000010 Ry

     new unit-cell volume =    470.83972 a.u.^3 (    69.77125 Ang^3 )
     density =      1.33686 g/cm^3

CELL_PARAMETERS (alat= 14.00000000)
  -0.441048482   0.000000000   0.441048482
   0.000000000   0.441048482   0.441048482
  -0.441048482   0.441048482   0.000000000

ATOMIC_POSITIONS (alat)
Si       0.000000000   0.000000000   0.000000000    0   0   0
Si       0.220524241   0.220524241   0.220524241    0   0   0



     Writing output data file si.save/
     NEW-OLD atomic charge density approx. for the potential

     Check: negative core charge=   -0.000003
     extrapolated charge    7.22735, renormalised to    8.00000

     total cpu time spent up to now is       23.2 secs

     Self-consistent Calculation

     iteration #  1     ecut=    30.00 Ry     beta= 0.70
     Davidson diagonalization with overlap
     ethr =  1.00E-06,  avg # of iterations =  5.8

     total cpu time spent up to now is       23.6 secs

     total energy              =     -22.67007399 Ry
     Harris-Foulkes estimate   =     -22.42469481 Ry
     estimated scf accuracy    <       0.00659465 Ry

     iteration #  2     ecut=    30.00 Ry     beta= 0.70
     Davidson diagonalization with overlap
     ethr =  8.24E-05,  avg # of iterations =  3.2

     total cpu time spent up to now is       23.8 secs

     total energy              =     -22.67995470 Ry
     Harris-Foulkes estimate   =     -22.68094670 Ry
     estimated scf accuracy    <       0.00321164 Ry

     iteration #  3     ecut=    30.00 Ry     beta= 0.70
     Davidson diagonalization with overlap
     ethr =  4.01E-05,  avg # of iterations =  1.0

     total cpu time spent up to now is       24.0 secs

     total energy              =     -22.67973935 Ry
     Harris-Foulkes estimate   =     -22.68007941 Ry
     estimated scf accuracy    <       0.00075527 Ry

     iteration #  4     ecut=    30.00 Ry     beta= 0.70
     Davidson diagonalization with overlap
     ethr =  9.44E-06,  avg # of iterations =  2.0

     total cpu time spent up to now is       24.3 secs

     total energy              =     -22.67982699 Ry
     Harris-Foulkes estimate   =     -22.67989185 Ry
     estimated scf accuracy    <       0.00015411 Ry

     iteration #  5     ecut=    30.00 Ry     beta= 0.70
     Davidson diagonalization with overlap
     ethr =  1.93E-06,  avg # of iterations =  1.6

     total cpu time spent up to now is       24.5 secs

     total energy              =     -22.67984169 Ry
     Harris-Foulkes estimate   =     -22.67984159 Ry
     estimated scf accuracy    <       0.00000224 Ry

     iteration #  6     ecut=    30.00 Ry     beta= 0.70
     Davidson diagonalization with overlap
     ethr =  2.80E-08,  avg # of iterations =  3.2

     total cpu time spent up to now is       24.7 secs

     total energy              =     -22.67984415 Ry
     Harris-Foulkes estimate   =     -22.67984324 Ry
     estimated scf accuracy    <       0.00000233 Ry

     iteration #  7     ecut=    30.00 Ry     beta= 0.70
     Davidson diagonalization with overlap
     ethr =  2.80E-08,  avg # of iterations =  1.0

     total cpu time spent up to now is       24.9 secs

     total energy              =     -22.67984201 Ry
     Harris-Foulkes estimate   =     -22.67984419 Ry
     estimated scf accuracy    <       0.00000522 Ry

     iteration #  8     ecut=    30.00 Ry     beta= 0.70
     Davidson diagonalization with overlap
     ethr =  2.80E-08,  avg # of iterations =  2.0

     total cpu time spent up to now is       25.1 secs

     total energy              =     -22.67984254 Ry
     Harris-Foulkes estimate   =     -22.67984256 Ry
     estimated scf accuracy    <       0.00000039 Ry

     iteration #  9     ecut=    30.00 Ry     beta= 0.70
     Davidson diagonalization with overlap
     ethr =  4.86E-09,  avg # of iterations =  1.2

     total cpu time spent up to now is       25.3 secs

     total energy              =     -22.67984257 Ry
     Harris-Foulkes estimate   =     -22.67984256 Ry
     estimated scf accuracy    <       0.00000006 Ry

     iteration # 10     ecut=    30.00 Ry     beta= 0.70
     Davidson diagonalization with overlap
     ethr =  7.82E-10,  avg # of iterations =  1.5

     total cpu time spent up to now is       25.5 secs

     total energy              =     -22.67984259 Ry
     Harris-Foulkes estimate   =     -22.67984258 Ry
     estimated scf accuracy    <       0.00000008 Ry

     iteration # 11     ecut=    30.00 Ry     beta= 0.70
     Davidson diagonalization with overlap
     ethr =  7.82E-10,  avg # of iterations =  1.6

     total cpu time spent up to now is       25.7 secs

     total energy              =     -22.67984259 Ry
     Harris-Foulkes estimate   =     -22.67984260 Ry
     estimated scf accuracy    <       0.00000039 Ry

     iteration # 12     ecut=    30.00 Ry     beta= 0.70
     Davidson diagonalization with overlap
     ethr =  7.82E-10,  avg # of iterations =  1.0

     total cpu time spent up to now is       25.9 secs

     total energy              =     -22.67984255 Ry
     Harris-Foulkes estimate   =     -22.67984260 Ry
     estimated scf accuracy    <       0.00000028 Ry

     iteration # 13     ecut=    30.00 Ry     beta= 0.70
     Davidson diagonalization with overlap
     ethr =  7.82E-10,  avg # of iterations =  2.4

     total cpu time spent up to now is       26.2 secs

     total energy              =     -22.67984257 Ry
     Harris-Foulkes estimate   =     -22.67984258 Ry
     estimated scf accuracy    <       0.00000007 Ry

     iteration # 14     ecut=    30.00 Ry     beta= 0.70
     Davidson diagonalization with overlap
     ethr =  7.82E-10,  avg # of iterations =  1.0

     total cpu time spent up to now is       26.4 secs

     total energy              =     -22.67984257 Ry
     Harris-Foulkes estimate   =     -22.67984257 Ry
     estimated scf accuracy    <          2.7E-09 Ry

     iteration # 15     ecut=    30.00 Ry     beta= 0.70
     Davidson diagonalization with overlap
     ethr =  3.37E-11,  avg # of iterations =  1.6

     total cpu time spent up to now is       26.6 secs

     End of self-consistent calculation

          k = 0.0000 0.0000 0.0000 (  1917 PWs)   bands (ev):

    -7.2747   0.0154   1.7216   1.7216

          k =-0.2834 0.2834-0.2834 (  1910 PWs)   bands (ev):

    -6.8105  -2.0365   1.2711   1.2711

          k = 0.5668-0.5668 0.5668 (  1916 PWs)   bands (ev):

    -6.0387  -3.6617   0.9736   0.9736

          k = 0.0000 0.5668 0.0000 (  1924 PWs)   bands (ev):

    -6.6361  -2.2963   0.6698   0.6698

          k = 0.8502-0.2834 0.8502 (  1903 PWs)   bands (ev):

    -5.7423  -3.8387  -0.2752   0.4507

          k = 0.5668 0.0000 0.5668 (  1915 PWs)   bands (ev):

    -6.1129  -3.3122  -0.3165   0.9303

          k = 0.0000-1.1337 0.0000 (  1868 PWs)   bands (ev):

    -4.8506  -4.8506   0.0744   0.0744

          k =-0.5668-1.1337-0.0000 (  1888 PWs)   bands (ev):

    -4.8225  -4.8225  -0.3196  -0.3196

     highest occupied level (ev):     1.7216

!    total energy              =     -22.67984257 Ry
     Harris-Foulkes estimate   =     -22.67984257 Ry
     estimated scf accuracy    <          1.9E-10 Ry

     The total energy is the sum of the following terms:

     one-electron contribution =       1.37156930 Ry
     hartree contribution      =       1.68869765 Ry
     xc contribution           =     -11.78168800 Ry
     ewald contribution        =     -13.95842153 Ry

     convergence has been achieved in  15 iterations

     Forces acting on atoms (cartesian axes, Ry/au):

     atom    1 type  1   force =    -0.00000000   -0.00000000   -0.00000000
     atom    2 type  1   force =     0.00000000    0.00000000    0.00000000

     Total force =     0.000000     Total SCF correction =     0.000000


     Computing stress (Cartesian axis) and pressure

          total   stress  (Ry/bohr**3)                   (kbar)     P= -131.42
  -0.00089340  -0.00000000   0.00000000       -131.42     -0.00      0.00
  -0.00000000  -0.00089340  -0.00000000         -0.00   -131.42     -0.00
   0.00000000  -0.00000000  -0.00089340          0.00     -0.00   -131.42


     number of scf cycles    =   6
     number of bfgs steps    =   5

     enthalpy old            =     -22.6404498926 Ry
     enthalpy new            =     -22.6798425727 Ry

     CASE: enthalpy_new < enthalpy_old


     WARNING: bfgs curvature condition failed, Theta= 0.580
     uphill step: resetting bfgs history

     new trust radius        =       0.0969283613 bohr
ibrav =      2
 celldm(1) =     12.07353562
Input lattice vectors:
    -0.43119770     0.00000000     0.43119770
    -0.00000000     0.43119770     0.43119770
    -0.43119770     0.43119770     0.00000000
New lattice vectors in INITIAL alat:
    -0.43119770     0.00000000     0.43119770
     0.00000000     0.43119770     0.43119770
    -0.43119770     0.43119770     0.00000000
New lattice vectors in NEW alat (for information only):
    -0.50000000     0.00000000     0.50000000
     0.00000000     0.50000000     0.50000000
    -0.50000000     0.50000000     0.00000000
Discrepancy in bohr =     0.000000    0.000000    0.000000
     new conv_thr            =       0.0000000010 Ry

     new unit-cell volume =    439.99061 a.u.^3 (    65.19988 Ang^3 )
     density =      1.43059 g/cm^3

CELL_PARAMETERS (alat= 14.00000000)
  -0.431197701   0.000000000   0.431197701
   0.000000000   0.431197701   0.431197701
  -0.431197701   0.431197701   0.000000000

ATOMIC_POSITIONS (alat)
Si       0.000000000   0.000000000   0.000000000    0   0   0
Si       0.215598850   0.215598850   0.215598850    0   0   0



     Writing output data file si.save/
     NEW-OLD atomic charge density approx. for the potential

     Check: negative core charge=   -0.000003
     extrapolated charge    7.43917, renormalised to    8.00000

     total cpu time spent up to now is       28.0 secs

     Self-consistent Calculation

     iteration #  1     ecut=    30.00 Ry     beta= 0.70
     Davidson diagonalization with overlap
     ethr =  1.00E-06,  avg # of iterations =  5.5

     total cpu time spent up to now is       28.4 secs

     total energy              =     -22.70285193 Ry
     Harris-Foulkes estimate   =     -22.50722521 Ry
     estimated scf accuracy    <       0.00315116 Ry

     iteration #  2     ecut=    30.00 Ry     beta= 0.70
     Davidson diagonalization with overlap
     ethr =  3.94E-05,  avg # of iterations =  3.2

     total cpu time spent up to now is       28.7 secs

     total energy              =     -22.70790821 Ry
     Harris-Foulkes estimate   =     -22.70842548 Ry
     estimated scf accuracy    <       0.00172094 Ry

     iteration #  3     ecut=    30.00 Ry     beta= 0.70
     Davidson diagonalization with overlap
     ethr =  2.15E-05,  avg # of iterations =  1.0

     total cpu time spent up to now is       28.9 secs

     total energy              =     -22.70777048 Ry
     Harris-Foulkes estimate   =     -22.70796388 Ry
     estimated scf accuracy    <       0.00042491 Ry

     iteration #  4     ecut=    30.00 Ry     beta= 0.70
     Davidson diagonalization with overlap
     ethr =  5.31E-06,  avg # of iterations =  2.0

     total cpu time spent up to now is       29.2 secs

     total energy              =     -22.70782382 Ry
     Harris-Foulkes estimate   =     -22.70784225 Ry
     estimated scf accuracy    <       0.00004292 Ry

     iteration #  5     ecut=    30.00 Ry     beta= 0.70
     Davidson diagonalization with overlap
     ethr =  5.37E-07,  avg # of iterations =  2.1

     total cpu time spent up to now is       29.4 secs

     total energy              =     -22.70782917 Ry
     Harris-Foulkes estimate   =     -22.70782932 Ry
     estimated scf accuracy    <       0.00000043 Ry

     iteration #  6     ecut=    30.00 Ry     beta= 0.70
     Davidson diagonalization with overlap
     ethr =  5.32E-09,  avg # of iterations =  3.0

     total cpu time spent up to now is       29.7 secs

     total energy              =     -22.70782955 Ry
     Harris-Foulkes estimate   =     -22.70782964 Ry
     estimated scf accuracy    <       0.00000021 Ry

     iteration #  7     ecut=    30.00 Ry     beta= 0.70
     Davidson diagonalization with overlap
     ethr =  2.64E-09,  avg # of iterations =  2.0

     total cpu time spent up to now is       29.9 secs

     total energy              =     -22.70782959 Ry
     Harris-Foulkes estimate   =     -22.70782958 Ry
     estimated scf accuracy    <          8.0E-09 Ry

     iteration #  8     ecut=    30.00 Ry     beta= 0.70
     Davidson diagonalization with overlap
     ethr =  1.00E-10,  avg # of iterations =  3.1

     total cpu time spent up to now is       30.2 secs

     total energy              =     -22.70782958 Ry
     Harris-Foulkes estimate   =     -22.70782959 Ry
     estimated scf accuracy    <       0.00000003 Ry

     iteration #  9     ecut=    30.00 Ry     beta= 0.70
     Davidson diagonalization with overlap
     ethr =  1.00E-10,  avg # of iterations =  2.0

     total cpu time spent up to now is       30.4 secs

     End of self-consistent calculation

          k = 0.0000 0.0000 0.0000 (  1917 PWs)   bands (ev):

    -7.1231   0.9263   2.1515   2.1515

          k =-0.2899 0.2899-0.2899 (  1910 PWs)   bands (ev):

    -6.6239  -1.5256   1.6684   1.6684

          k = 0.5798-0.5798 0.5798 (  1916 PWs)   bands (ev):

    -5.7816  -3.3164   1.3536   1.3536

          k = 0.0000 0.5798 0.0000 (  1924 PWs)   bands (ev):

    -6.4377  -1.7595   1.0166   1.0166

          k = 0.8697-0.2899 0.8697 (  1903 PWs)   bands (ev):

    -5.4703  -3.4436  -0.0023   0.7860

          k = 0.5798 0.0000 0.5798 (  1915 PWs)   bands (ev):

    -5.8708  -2.8773  -0.0547   1.3040

          k = 0.0000-1.1596 0.0000 (  1868 PWs)   bands (ev):

    -4.5176  -4.5176   0.3823   0.3823

          k =-0.5798-1.1596-0.0000 (  1888 PWs)   bands (ev):

    -4.4817  -4.4817  -0.0612  -0.0612

     highest occupied level (ev):     2.1515

!    total energy              =     -22.70782958 Ry
     Harris-Foulkes estimate   =     -22.70782958 Ry
     estimated scf accuracy    <          1.4E-10 Ry

     The total energy is the sum of the following terms:

     one-electron contribution =       1.79215617 Ry
     hartree contribution      =       1.60987162 Ry
     xc contribution           =     -11.83255345 Ry
     ewald contribution        =     -14.27730392 Ry

     convergence has been achieved in   9 iterations

     Forces acting on atoms (cartesian axes, Ry/au):

     atom    1 type  1   force =     0.00000000    0.00000000   -0.00000000
     atom    2 type  1   force =    -0.00000000   -0.00000000    0.00000000

     Total force =     0.000000     Total SCF correction =     0.000000


     Computing stress (Cartesian axis) and pressure

          total   stress  (Ry/bohr**3)                   (kbar)     P= -135.07
  -0.00091821  -0.00000000  -0.00000000       -135.07     -0.00     -0.00
  -0.00000000  -0.00091821   0.00000000         -0.00   -135.07      0.00
  -0.00000000   0.00000000  -0.00091821         -0.00      0.00   -135.07


     number of scf cycles    =   7
     number of bfgs steps    =   6

     enthalpy old            =     -22.6798425727 Ry
     enthalpy new            =     -22.7078295791 Ry

     CASE: enthalpy_new < enthalpy_old


     WARNING: bfgs curvature condition failed, Theta= 0.814
     new trust radius        =       0.1437597080 bohr
ibrav =      2
 celldm(1) =     11.65980282
Input lattice vectors:
    -0.41642153     0.00000000     0.41642153
    -0.00000000     0.41642153     0.41642153
    -0.41642153     0.41642153     0.00000000
New lattice vectors in INITIAL alat:
    -0.41642153     0.00000000     0.41642153
     0.00000000     0.41642153     0.41642153
    -0.41642153     0.41642153     0.00000000
New lattice vectors in NEW alat (for information only):
    -0.50000000     0.00000000     0.50000000
     0.00000000     0.50000000     0.50000000
    -0.50000000     0.50000000     0.00000000
Discrepancy in bohr =     0.000000    0.000000    0.000000
     new conv_thr            =       0.0000000010 Ry

     new unit-cell volume =    396.29047 a.u.^3 (    58.72419 Ang^3 )
     density =      1.58834 g/cm^3

CELL_PARAMETERS (alat= 14.00000000)
  -0.416421529   0.000000000   0.416421529
   0.000000000   0.416421529   0.416421529
  -0.416421529   0.416421529   0.000000000

ATOMIC_POSITIONS (alat)
Si       0.000000000   0.000000000   0.000000000    0   0   0
Si       0.208210765   0.208210765   0.208210765    0   0   0



     Writing output data file si.save/
     NEW-OLD atomic charge density approx. for the potential

     Check: negative core charge=   -0.000001
     extrapolated charge    7.11794, renormalised to    8.00000

     total cpu time spent up to now is       31.8 secs

     Self-consistent Calculation

     iteration #  1     ecut=    30.00 Ry     beta= 0.70
     Davidson diagonalization with overlap
     ethr =  1.00E-06,  avg # of iterations =  5.8

     total cpu time spent up to now is       32.2 secs

     total energy              =     -22.73648114 Ry
     Harris-Foulkes estimate   =     -22.39616180 Ry
     estimated scf accuracy    <       0.00800704 Ry

     iteration #  2     ecut=    30.00 Ry     beta= 0.70
     Davidson diagonalization with overlap
     ethr =  1.00E-04,  avg # of iterations =  3.2

     total cpu time spent up to now is       32.5 secs

     total energy              =     -22.74814191 Ry
     Harris-Foulkes estimate   =     -22.74928764 Ry
     estimated scf accuracy    <       0.00382108 Ry

     iteration #  3     ecut=    30.00 Ry     beta= 0.70
     Davidson diagonalization with overlap
     ethr =  4.78E-05,  avg # of iterations =  1.0

     total cpu time spent up to now is       32.8 secs

     total energy              =     -22.74788815 Ry
     Harris-Foulkes estimate   =     -22.74828483 Ry
     estimated scf accuracy    <       0.00088959 Ry

     iteration #  4     ecut=    30.00 Ry     beta= 0.70
     Davidson diagonalization with overlap
     ethr =  1.11E-05,  avg # of iterations =  2.0

     total cpu time spent up to now is       33.0 secs

     total energy              =     -22.74799602 Ry
     Harris-Foulkes estimate   =     -22.74802878 Ry
     estimated scf accuracy    <       0.00007720 Ry

     iteration #  5     ecut=    30.00 Ry     beta= 0.70
     Davidson diagonalization with overlap
     ethr =  9.65E-07,  avg # of iterations =  1.9

     total cpu time spent up to now is       33.2 secs

     total energy              =     -22.74800584 Ry
     Harris-Foulkes estimate   =     -22.74800608 Ry
     estimated scf accuracy    <       0.00000076 Ry

     iteration #  6     ecut=    30.00 Ry     beta= 0.70
     Davidson diagonalization with overlap
     ethr =  9.47E-09,  avg # of iterations =  3.2

     total cpu time spent up to now is       33.5 secs

     total energy              =     -22.74800651 Ry
     Harris-Foulkes estimate   =     -22.74800679 Ry
     estimated scf accuracy    <       0.00000076 Ry

     iteration #  7     ecut=    30.00 Ry     beta= 0.70
     Davidson diagonalization with overlap
     ethr =  9.47E-09,  avg # of iterations =  1.9

     total cpu time spent up to now is       33.8 secs

     total energy              =     -22.74800659 Ry
     Harris-Foulkes estimate   =     -22.74800659 Ry
     estimated scf accuracy    <          7.0E-09 Ry

     iteration #  8     ecut=    30.00 Ry     beta= 0.70
     Davidson diagonalization with overlap
     ethr =  8.78E-11,  avg # of iterations =  3.5

     total cpu time spent up to now is       34.1 secs

     total energy              =     -22.74800659 Ry
     Harris-Foulkes estimate   =     -22.74800660 Ry
     estimated scf accuracy    <       0.00000003 Ry

     iteration #  9     ecut=    30.00 Ry     beta= 0.70
     Davidson diagonalization with overlap
     ethr =  8.78E-11,  avg # of iterations =  2.1

     total cpu time spent up to now is       34.3 secs

     End of self-consistent calculation

          k = 0.0000 0.0000 0.0000 (  1917 PWs)   bands (ev):

    -6.8722   2.4637   2.8749   2.8749

          k =-0.3002 0.3002-0.3002 (  1910 PWs)   bands (ev):

    -6.3159  -0.7339   2.3383   2.3383

          k = 0.6004-0.6004 0.6004 (  1916 PWs)   bands (ev):

    -5.3543  -2.7827   1.9965   1.9965

          k = 0.0000 0.6004 0.0000 (  1924 PWs)   bands (ev):

    -6.1109  -0.8954   1.6014   1.6014

          k = 0.9005-0.3002 0.9005 (  1903 PWs)   bands (ev):

    -5.0214  -2.8069   0.4612   1.3529

          k = 0.6004 0.0000 0.6004 (  1915 PWs)   bands (ev):

    -5.4716  -2.1775   0.3874   1.9353

          k = 0.0000-1.2007 0.0000 (  1868 PWs)   bands (ev):

    -3.9722  -3.9722   0.9038   0.9038

          k =-0.6004-1.2007-0.0000 (  1888 PWs)   bands (ev):

    -3.9207  -3.9207   0.3726   0.3726

     highest occupied level (ev):     2.8749

!    total energy              =     -22.74800659 Ry
     Harris-Foulkes estimate   =     -22.74800659 Ry
     estimated scf accuracy    <          9.1E-10 Ry

     The total energy is the sum of the following terms:

     one-electron contribution =       2.46077895 Ry
     hartree contribution      =       1.49406006 Ry
     xc contribution           =     -11.91893030 Ry
     ewald contribution        =     -14.78391531 Ry

     convergence has been achieved in   9 iterations

     Forces acting on atoms (cartesian axes, Ry/au):

     atom    1 type  1   force =     0.00000000    0.00000000    0.00000000
     atom    2 type  1   force =     0.00000000    0.00000000    0.00000000

     Total force =     0.000000     Total SCF correction =     0.000000


     Computing stress (Cartesian axis) and pressure

          total   stress  (Ry/bohr**3)                   (kbar)     P= -133.65
  -0.00090854   0.00000000  -0.00000000       -133.65      0.00     -0.00
   0.00000000  -0.00090854  -0.00000000          0.00   -133.65     -0.00
   0.00000000  -0.00000000  -0.00090854          0.00     -0.00   -133.65


     number of scf cycles    =   8
     number of bfgs steps    =   7

     enthalpy old            =     -22.7078295791 Ry
     enthalpy new            =     -22.7480065908 Ry

     CASE: enthalpy_new < enthalpy_old

     new trust radius        =       0.2119126148 bohr
ibrav =      2
 celldm(1) =     11.03920362
Input lattice vectors:
    -0.39425727    -0.00000000     0.39425727
     0.00000000     0.39425727     0.39425727
    -0.39425727     0.39425727    -0.00000000
New lattice vectors in INITIAL alat:
    -0.39425727     0.00000000     0.39425727
     0.00000000     0.39425727     0.39425727
    -0.39425727     0.39425727     0.00000000
New lattice vectors in NEW alat (for information only):
    -0.50000000     0.00000000     0.50000000
     0.00000000     0.50000000     0.50000000
    -0.50000000     0.50000000     0.00000000
Discrepancy in bohr =     0.000000    0.000000    0.000000
     new conv_thr            =       0.0000000010 Ry

     new unit-cell volume =    336.32042 a.u.^3 (    49.83754 Ang^3 )
     density =      1.87156 g/cm^3

CELL_PARAMETERS (alat= 14.00000000)
  -0.394257272   0.000000000   0.394257272
   0.000000000   0.394257272   0.394257272
  -0.394257272   0.394257272   0.000000000

ATOMIC_POSITIONS (alat)
Si       0.000000000   0.000000000   0.000000000    0   0   0
Si       0.197128636   0.197128636   0.197128636    0   0   0



     Writing output data file si.save/
     NEW-OLD atomic charge density approx. for the potential
     extrapolated charge    6.57370, renormalised to    8.00000

     total cpu time spent up to now is       35.7 secs

     Self-consistent Calculation

     iteration #  1     ecut=    30.00 Ry     beta= 0.70
     Davidson diagonalization with overlap
     ethr =  1.00E-06,  avg # of iterations =  6.0

     total cpu time spent up to now is       36.1 secs

     total energy              =     -22.77037582 Ry
     Harris-Foulkes estimate   =     -22.14138434 Ry
     estimated scf accuracy    <       0.02239040 Ry

     iteration #  2     ecut=    30.00 Ry     beta= 0.70
     Davidson diagonalization with overlap
     ethr =  2.80E-04,  avg # of iterations =  3.2

     total cpu time spent up to now is       36.4 secs

     total energy              =     -22.79796208 Ry
     Harris-Foulkes estimate   =     -22.80056219 Ry
     estimated scf accuracy    <       0.00865891 Ry

     iteration #  3     ecut=    30.00 Ry     beta= 0.70
     Davidson diagonalization with overlap
     ethr =  1.08E-04,  avg # of iterations =  1.0

     total cpu time spent up to now is       36.7 secs

     total energy              =     -22.79751944 Ry
     Harris-Foulkes estimate   =     -22.79830698 Ry
     estimated scf accuracy    <       0.00182231 Ry

     iteration #  4     ecut=    30.00 Ry     beta= 0.70
     Davidson diagonalization with overlap
     ethr =  2.28E-05,  avg # of iterations =  2.0

     total cpu time spent up to now is       36.9 secs

     total energy              =     -22.79773664 Ry
     Harris-Foulkes estimate   =     -22.79778047 Ry
     estimated scf accuracy    <       0.00010455 Ry

     iteration #  5     ecut=    30.00 Ry     beta= 0.70
     Davidson diagonalization with overlap
     ethr =  1.31E-06,  avg # of iterations =  2.1

     total cpu time spent up to now is       37.2 secs

     total energy              =     -22.79775466 Ry
     Harris-Foulkes estimate   =     -22.79775524 Ry
     estimated scf accuracy    <       0.00000175 Ry

     iteration #  6     ecut=    30.00 Ry     beta= 0.70
     Davidson diagonalization with overlap
     ethr =  2.18E-08,  avg # of iterations =  2.9

     total cpu time spent up to now is       37.4 secs

     total energy              =     -22.79775565 Ry
     Harris-Foulkes estimate   =     -22.79775569 Ry
     estimated scf accuracy    <       0.00000013 Ry

     iteration #  7     ecut=    30.00 Ry     beta= 0.70
     Davidson diagonalization with overlap
     ethr =  1.59E-09,  avg # of iterations =  2.0

     total cpu time spent up to now is       37.7 secs

     total energy              =     -22.79775566 Ry
     Harris-Foulkes estimate   =     -22.79775567 Ry
     estimated scf accuracy    <          7.4E-09 Ry

     iteration #  8     ecut=    30.00 Ry     beta= 0.70
     Davidson diagonalization with overlap
     ethr =  9.26E-11,  avg # of iterations =  2.8

     total cpu time spent up to now is       37.9 secs

     End of self-consistent calculation

          k = 0.0000 0.0000 0.0000 (  1917 PWs)   bands (ev):

    -6.4298   4.1701   4.1701   5.2215

          k =-0.3171 0.3171-0.3171 (  1910 PWs)   bands (ev):

    -5.7761   0.5258   3.5421   3.5421

          k = 0.6341-0.6341 0.6341 (  1916 PWs)   bands (ev):

    -4.5979  -1.9335   3.1573   3.1573

          k = 0.0000 0.6341 0.0000 (  1924 PWs)   bands (ev):

    -5.5397   0.5567   2.6525   2.6525

          k = 0.9512-0.3171 0.9512 (  1903 PWs)   bands (ev):

    -4.2361  -1.7353   1.3055   2.3753

          k = 0.6341 0.0000 0.6341 (  1915 PWs)   bands (ev):

    -4.7735  -1.0003   1.1849   3.0726

          k = 0.0000-1.2682 0.0000 (  1868 PWs)   bands (ev):

    -3.0303  -3.0303   1.8474   1.8474

          k =-0.6341-1.2682 0.0000 (  1888 PWs)   bands (ev):

    -2.9430  -2.9430   1.1465   1.1465

     highest occupied level (ev):     5.2215

!    total energy              =     -22.79775567 Ry
     Harris-Foulkes estimate   =     -22.79775567 Ry
     estimated scf accuracy    <          2.1E-11 Ry

     The total energy is the sum of the following terms:

     one-electron contribution =       3.56573204 Ry
     hartree contribution      =       1.32614891 Ry
     xc contribution           =     -12.07460284 Ry
     ewald contribution        =     -15.61503378 Ry

     convergence has been achieved in   8 iterations

     Forces acting on atoms (cartesian axes, Ry/au):

     atom    1 type  1   force =    -0.00000000    0.00000000   -0.00000000
     atom    2 type  1   force =     0.00000000   -0.00000000    0.00000000

     Total force =     0.000000     Total SCF correction =     0.000000


     Computing stress (Cartesian axis) and pressure

          total   stress  (Ry/bohr**3)                   (kbar)     P= -102.01
  -0.00069348   0.00000000  -0.00000000       -102.01      0.00     -0.00
   0.00000000  -0.00069348   0.00000000          0.00   -102.01      0.00
  -0.00000000   0.00000000  -0.00069348         -0.00      0.00   -102.01


     number of scf cycles    =   9
     number of bfgs steps    =   8

     enthalpy old            =     -22.7480065908 Ry
     enthalpy new            =     -22.7977556672 Ry

     CASE: enthalpy_new < enthalpy_old

     new trust radius        =       0.3092938882 bohr
ibrav =      2
 celldm(1) =     10.10830482
Input lattice vectors:
    -0.36101089     0.00000000     0.36101089
     0.00000000     0.36101089     0.36101089
    -0.36101089     0.36101089    -0.00000000
New lattice vectors in INITIAL alat:
    -0.36101089     0.00000000     0.36101089
     0.00000000     0.36101089     0.36101089
    -0.36101089     0.36101089     0.00000000
New lattice vectors in NEW alat (for information only):
    -0.50000000     0.00000000     0.50000000
     0.00000000     0.50000000     0.50000000
    -0.50000000     0.50000000     0.00000000
Discrepancy in bohr =     0.000000    0.000000    0.000000
     new conv_thr            =       0.0000000010 Ry

     new unit-cell volume =    258.21115 a.u.^3 (    38.26294 Ang^3 )
     density =      2.43771 g/cm^3

CELL_PARAMETERS (alat= 14.00000000)
  -0.361010886   0.000000000   0.361010886
   0.000000000   0.361010886   0.361010886
  -0.361010886   0.361010886   0.000000000

ATOMIC_POSITIONS (alat)
Si       0.000000000   0.000000000   0.000000000    0   0   0
Si       0.180505443   0.180505443   0.180505443    0   0   0



     Writing output data file si.save/
     NEW-OLD atomic charge density approx. for the potential
     extrapolated charge    5.58033, renormalised to    8.00000

     total cpu time spent up to now is       39.4 secs

     Self-consistent Calculation

     iteration #  1     ecut=    30.00 Ry     beta= 0.70
     Davidson diagonalization with overlap
     ethr =  1.00E-06,  avg # of iterations =  6.0

     total cpu time spent up to now is       39.8 secs

     total energy              =     -22.74496114 Ry
     Harris-Foulkes estimate   =     -21.48238486 Ry
     estimated scf accuracy    <       0.07512033 Ry

     iteration #  2     ecut=    30.00 Ry     beta= 0.70
     Davidson diagonalization with overlap
     ethr =  9.39E-04,  avg # of iterations =  3.0

     total cpu time spent up to now is       40.1 secs

     total energy              =     -22.81271460 Ry
     Harris-Foulkes estimate   =     -22.81884549 Ry
     estimated scf accuracy    <       0.02000642 Ry

     iteration #  3     ecut=    30.00 Ry     beta= 0.70
     Davidson diagonalization with overlap
     ethr =  2.50E-04,  avg # of iterations =  1.4

     total cpu time spent up to now is       40.3 secs

     total energy              =     -22.81254812 Ry
     Harris-Foulkes estimate   =     -22.81392394 Ry
     estimated scf accuracy    <       0.00344385 Ry

     iteration #  4     ecut=    30.00 Ry     beta= 0.70
     Davidson diagonalization with overlap
     ethr =  4.30E-05,  avg # of iterations =  2.0

     total cpu time spent up to now is       40.5 secs

     total energy              =     -22.81294673 Ry
     Harris-Foulkes estimate   =     -22.81300502 Ry
     estimated scf accuracy    <       0.00014646 Ry

     iteration #  5     ecut=    30.00 Ry     beta= 0.70
     Davidson diagonalization with overlap
     ethr =  1.83E-06,  avg # of iterations =  2.2

     total cpu time spent up to now is       40.8 secs

     total energy              =     -22.81297358 Ry
     Harris-Foulkes estimate   =     -22.81297490 Ry
     estimated scf accuracy    <       0.00000681 Ry

     iteration #  6     ecut=    30.00 Ry     beta= 0.70
     Davidson diagonalization with overlap
     ethr =  8.51E-08,  avg # of iterations =  2.0

     total cpu time spent up to now is       41.0 secs

     total energy              =     -22.81297329 Ry
     Harris-Foulkes estimate   =     -22.81297461 Ry
     estimated scf accuracy    <       0.00000295 Ry

     iteration #  7     ecut=    30.00 Ry     beta= 0.70
     Davidson diagonalization with overlap
     ethr =  3.68E-08,  avg # of iterations =  2.1

     total cpu time spent up to now is       41.3 secs

     total energy              =     -22.81297375 Ry
     Harris-Foulkes estimate   =     -22.81297382 Ry
     estimated scf accuracy    <       0.00000018 Ry

     iteration #  8     ecut=    30.00 Ry     beta= 0.70
     Davidson diagonalization with overlap
     ethr =  2.25E-09,  avg # of iterations =  1.9

     total cpu time spent up to now is       41.5 secs

     total energy              =     -22.81297377 Ry
     Harris-Foulkes estimate   =     -22.81297377 Ry
     estimated scf accuracy    <          5.8E-09 Ry

     iteration #  9     ecut=    30.00 Ry     beta= 0.70
     Davidson diagonalization with overlap
     ethr =  7.22E-11,  avg # of iterations =  2.5

     total cpu time spent up to now is       41.8 secs

     total energy              =     -22.81297377 Ry
     Harris-Foulkes estimate   =     -22.81297377 Ry
     estimated scf accuracy    <          2.7E-09 Ry

     iteration # 10     ecut=    30.00 Ry     beta= 0.70
     Davidson diagonalization with overlap
     ethr =  3.42E-11,  avg # of iterations =  1.1

     total cpu time spent up to now is       42.0 secs

     End of self-consistent calculation

          k = 0.0000 0.0000 0.0000 (  1917 PWs)   bands (ev):

    -5.5600   6.7312   6.7312  10.6239

          k =-0.3462 0.3462-0.3462 (  1910 PWs)   bands (ev):

    -4.7270   2.7058   5.9369   5.9369

          k = 0.6925-0.6925 0.6925 (  1916 PWs)   bands (ev):

    -3.1081  -0.4733   5.4864   5.4864

          k = 0.0000 0.6925 0.0000 (  1924 PWs)   bands (ev):

    -4.4345   3.2168   4.7444   4.7444

          k = 1.0387-0.3462 1.0387 (  1903 PWs)   bands (ev):

    -2.7198   0.2114   3.0325   4.4212

          k = 0.6925 0.0000 0.6925 (  1915 PWs)   bands (ev):

    -3.4268   1.1565   2.7851   5.3441

          k = 0.0000-1.3850 0.0000 (  1868 PWs)   bands (ev):

    -1.2450  -1.2450   3.7450   3.7450

[...]
     estimated scf accuracy    <       0.00000002 Ry

     iteration #  6     ecut=    30.00 Ry     beta= 0.70
     Davidson diagonalization with overlap
     ethr =  2.95E-10,  avg # of iterations =  1.8

     total cpu time spent up to now is       52.0 secs

     End of self-consistent calculation

          k = 0.0000 0.0000 0.0000 (  1917 PWs)   bands (ev):

    -5.8751   5.8048   5.8048   8.6841

          k =-0.3362 0.3362-0.3362 (  1910 PWs)   bands (ev):

    -5.1052   1.9461   5.0685   5.0685

          k = 0.6724-0.6724 0.6724 (  1916 PWs)   bands (ev):

    -3.6478  -0.9797   4.6390   4.6390

          k = 0.0000 0.6724 0.0000 (  1924 PWs)   bands (ev):

    -4.8323   2.2762   3.9858   3.9858

          k = 1.0086-0.3362 1.0086 (  1903 PWs)   bands (ev):

    -3.2647  -0.4725   2.3989   3.6778

          k = 0.6724 0.0000 0.6724 (  1915 PWs)   bands (ev):

    -3.9106   0.3945   2.2026   4.5193

          k = 0.0000-1.3448 0.0000 (  1868 PWs)   bands (ev):

    -1.8824  -1.8824   3.0541   3.0541

          k =-0.6724-1.3448 0.0000 (  1888 PWs)   bands (ev):

    -1.7361  -1.7361   2.1175   2.1175

     highest occupied level (ev):     8.6841

!    total energy              =     -22.81986662 Ry
     Harris-Foulkes estimate   =     -22.81986662 Ry
     estimated scf accuracy    <          7.0E-11 Ry

     The total energy is the sum of the following terms:

     one-electron contribution =       4.84630691 Ry
     hartree contribution      =       1.16160043 Ry
     xc contribution           =     -12.26927013 Ry
     ewald contribution        =     -16.55850383 Ry

     convergence has been achieved in   6 iterations

     Forces acting on atoms (cartesian axes, Ry/au):

     atom    1 type  1   force =    -0.00000000   -0.00000000   -0.00000000
     atom    2 type  1   force =     0.00000000    0.00000000    0.00000000

     Total force =     0.000000     Total SCF correction =     0.000000


     Computing stress (Cartesian axis) and pressure

          total   stress  (Ry/bohr**3)                   (kbar)     P=    0.17
   0.00000117   0.00000000   0.00000000          0.17      0.00      0.00
   0.00000000   0.00000117  -0.00000000          0.00      0.17     -0.00
   0.00000000  -0.00000000   0.00000117          0.00     -0.00      0.17


     number of scf cycles    =  13
     number of bfgs steps    =  12

     enthalpy old            =     -22.8198546279 Ry
     enthalpy new            =     -22.8198666158 Ry

     CASE: enthalpy_new < enthalpy_old

     new trust radius        =       0.0002249210 bohr
ibrav =      2
 celldm(1) =     10.41090924
Input lattice vectors:
    -0.37181819    -0.00000000     0.37181819
     0.00000000     0.37181819     0.37181819
    -0.37181819     0.37181819    -0.00000000
New lattice vectors in INITIAL alat:
    -0.37181819     0.00000000     0.37181819
     0.00000000     0.37181819     0.37181819
    -0.37181819     0.37181819     0.00000000
New lattice vectors in NEW alat (for information only):
    -0.50000000     0.00000000     0.50000000
     0.00000000     0.50000000     0.50000000
    -0.50000000     0.50000000     0.00000000
Discrepancy in bohr =     0.000000    0.000000    0.000000
     new conv_thr            =       0.0000000010 Ry

     new unit-cell volume =    282.10189 a.u.^3 (    41.80319 Ang^3 )
     density =      2.23127 g/cm^3

CELL_PARAMETERS (alat= 14.00000000)
  -0.371818187   0.000000000   0.371818187
   0.000000000   0.371818187   0.371818187
  -0.371818187   0.371818187   0.000000000

ATOMIC_POSITIONS (alat)
Si       0.000000000   0.000000000   0.000000000    0   0   0
Si       0.185909094   0.185909094   0.185909094    0   0   0



     Writing output data file si.save/
     NEW-OLD atomic charge density approx. for the potential

     Check: negative core charge=   -0.000001
     extrapolated charge    8.00161, renormalised to    8.00000

     total cpu time spent up to now is       53.4 secs

     Self-consistent Calculation

     iteration #  1     ecut=    30.00 Ry     beta= 0.70
     Davidson diagonalization with overlap
     ethr =  1.00E-06,  avg # of iterations =  2.0

     Threshold (ethr) on eigenvalues was too large:
     Diagonalizing with lowered threshold

     Davidson diagonalization with overlap
     ethr =  1.97E-10,  avg # of iterations =  2.0

     total cpu time spent up to now is       53.9 secs

     total energy              =     -22.81986662 Ry
     Harris-Foulkes estimate   =     -22.82073488 Ry
     estimated scf accuracy    <       0.00000002 Ry

     iteration #  2     ecut=    30.00 Ry     beta= 0.70
     Davidson diagonalization with overlap
     ethr =  2.01E-10,  avg # of iterations =  3.5

     total cpu time spent up to now is       54.2 secs

     total energy              =     -22.81986665 Ry
     Harris-Foulkes estimate   =     -22.81986665 Ry
     estimated scf accuracy    <       0.00000001 Ry

     iteration #  3     ecut=    30.00 Ry     beta= 0.70
     Davidson diagonalization with overlap
     ethr =  1.57E-10,  avg # of iterations =  1.0

     total cpu time spent up to now is       54.4 secs

     total energy              =     -22.81986665 Ry
     Harris-Foulkes estimate   =     -22.81986665 Ry
     estimated scf accuracy    <          3.5E-09 Ry

     iteration #  4     ecut=    30.00 Ry     beta= 0.70
     Davidson diagonalization with overlap
     ethr =  4.38E-11,  avg # of iterations =  2.0

     total cpu time spent up to now is       54.7 secs

     End of self-consistent calculation

          k = 0.0000 0.0000 0.0000 (  1917 PWs)   bands (ev):

    -5.8758   5.8029   5.8029   8.6799

          k =-0.3362 0.3362-0.3362 (  1910 PWs)   bands (ev):

    -5.1060   1.9444   5.0667   5.0667

          k = 0.6724-0.6724 0.6724 (  1916 PWs)   bands (ev):

    -3.6489  -0.9808   4.6372   4.6372

          k = 0.0000 0.6724 0.0000 (  1924 PWs)   bands (ev):

    -4.8331   2.2741   3.9842   3.9842

          k = 1.0086-0.3362 1.0086 (  1903 PWs)   bands (ev):

    -3.2659  -0.4740   2.3975   3.6762

          k = 0.6724 0.0000 0.6724 (  1915 PWs)   bands (ev):

    -3.9117   0.3928   2.2013   4.5175

          k = 0.0000-1.3447 0.0000 (  1868 PWs)   bands (ev):

    -1.8838  -1.8838   3.0526   3.0526

          k =-0.6724-1.3447 0.0000 (  1888 PWs)   bands (ev):

    -1.7375  -1.7375   2.1164   2.1164

     highest occupied level (ev):     8.6799

!    total energy              =     -22.81986665 Ry
     Harris-Foulkes estimate   =     -22.81986665 Ry
     estimated scf accuracy    <          1.6E-10 Ry

     The total energy is the sum of the following terms:

     one-electron contribution =       4.84478568 Ry
     hartree contribution      =       1.16176740 Ry
     xc contribution           =     -12.26902465 Ry
     ewald contribution        =     -16.55739508 Ry

     convergence has been achieved in   4 iterations

     Forces acting on atoms (cartesian axes, Ry/au):

     atom    1 type  1   force =     0.00000000   -0.00000000    0.00000000
     atom    2 type  1   force =     0.00000000    0.00000000    0.00000000

     Total force =     0.000000     Total SCF correction =     0.000000


     Computing stress (Cartesian axis) and pressure

          total   stress  (Ry/bohr**3)                   (kbar)     P=   -0.01
  -0.00000006   0.00000000   0.00000000         -0.01      0.00      0.00
   0.00000000  -0.00000006  -0.00000000          0.00     -0.01     -0.00
   0.00000000  -0.00000000  -0.00000006          0.00     -0.00     -0.01

ibrav =      2
 celldm(1) =     10.41090924
Input lattice vectors:
    -0.37181819     0.00000000     0.37181819
     0.00000000     0.37181819     0.37181819
    -0.37181819     0.37181819     0.00000000
New lattice vectors in INITIAL alat:
    -0.37181819     0.00000000     0.37181819
     0.00000000     0.37181819     0.37181819
    -0.37181819     0.37181819     0.00000000
New lattice vectors in NEW alat (for information only):
    -0.50000000     0.00000000     0.50000000
     0.00000000     0.50000000     0.50000000
    -0.50000000     0.50000000     0.00000000
Discrepancy in bohr =     0.000000    0.000000    0.000000

     bfgs converged in  14 scf cycles and  13 bfgs steps
     (criteria: energy <  1.0E-05 Ry, force <  1.0E-04Ry/Bohr, cell <  5.0E-01kbar)

     End of BFGS Geometry Optimization

     Final enthalpy =     -22.8198666469 Ry
Begin final coordinates
     new unit-cell volume =    282.10189 a.u.^3 (    41.80319 Ang^3 )
     density =      2.23127 g/cm^3

CELL_PARAMETERS (alat= 14.00000000)
  -0.371818187   0.000000000   0.371818187
   0.000000000   0.371818187   0.371818187
  -0.371818187   0.371818187   0.000000000

ATOMIC_POSITIONS (alat)
Si       0.000000000   0.000000000   0.000000000    0   0   0
Si       0.185909094   0.185909094   0.185909094    0   0   0
End final coordinates



     Writing output data file si.save/

     A final scf calculation at the relaxed structure.
     The G-vectors are recalculated for the final unit cell
     Results may differ from those at the preceding step.
 
     Parallelization info
     --------------------
     sticks:   dense  smooth     PW     G-vecs:    dense   smooth      PW
     Min         219     219     69                 3115     3115     533
     Max         220     220     70                 3116     3116     534
     Sum         439     439    139                 6231     6231    1067
 


     bravais-lattice index     =            2
     lattice parameter (alat)  =      14.0000  a.u.
     unit-cell volume          =     282.1019 (a.u.)^3
     number of atoms/cell      =            2
     number of atomic types    =            1
     number of electrons       =         8.00
     number of Kohn-Sham states=            4
     kinetic-energy cutoff     =      30.0000  Ry
     charge density cutoff     =     120.0000  Ry
     convergence threshold     =      1.0E-09
     mixing beta               =       0.7000
     number of iterations used =            8  plain     mixing
     Exchange-correlation      = PBE ( 1  4  3  4 0 0)

     celldm(1)=  14.000000  celldm(2)=   0.000000  celldm(3)=   0.000000
     celldm(4)=   0.000000  celldm(5)=   0.000000  celldm(6)=   0.000000

     crystal axes: (cart. coord. in units of alat)
               a(1) = (  -0.371818   0.000000   0.371818 )  
               a(2) = (   0.000000   0.371818   0.371818 )  
               a(3) = (  -0.371818   0.371818   0.000000 )  

     reciprocal axes: (cart. coord. in units 2 pi/alat)
               b(1) = ( -1.344743 -1.344743  1.344743 )  
               b(2) = (  1.344743  1.344743  1.344743 )  
               b(3) = ( -1.344743  1.344743 -1.344743 )  


     PseudoPot. # 1 for Si read from file:
     /home/anonymous/quantumEspresso_2019/SSSP_precision_pseudos/Si.pbe-n-rrkjus_psl.1.0.0.UPF
     MD5 check sum: 0b0bb1205258b0d07b9f9672cf965d36
     Pseudo is Ultrasoft + core correction, Zval =  4.0
     Generated using "atomic" code by A. Dal Corso v.5.1
     Using radial grid of 1141 points,  6 beta functions with: 
                l(1) =   0
                l(2) =   0
                l(3) =   1
                l(4) =   1
                l(5) =   2
                l(6) =   2
     Q(r) pseudized with 0 coefficients 


     atomic species   valence    mass     pseudopotential
        Si             4.00    28.08550     Si( 1.00)

     48 Sym. Ops., with inversion, found (24 have fractional translation)



   Cartesian axes

     site n.     atom                  positions (alat units)
         1           Si  tau(   1) = (   0.0000000   0.0000000   0.0000000  )
         2           Si  tau(   2) = (   0.1859091   0.1859091   0.1859091  )

     number of k points=     8
                       cart. coord. in units 2pi/alat
        k(    1) = (   0.0000000   0.0000000   0.0000000), wk =   0.0312500
        k(    2) = (  -0.3361858   0.3361858  -0.3361858), wk =   0.2500000
        k(    3) = (   0.6723716  -0.6723716   0.6723716), wk =   0.1250000
        k(    4) = (   0.0000000   0.6723716   0.0000000), wk =   0.1875000
        k(    5) = (   1.0085574  -0.3361858   1.0085574), wk =   0.7500000
        k(    6) = (   0.6723716   0.0000000   0.6723716), wk =   0.3750000
        k(    7) = (   0.0000000  -1.3447433   0.0000000), wk =   0.0937500
        k(    8) = (  -0.6723716  -1.3447433   0.0000000), wk =   0.1875000

     Dense  grid:     6231 G-vectors     FFT dimensions: (  32,  32,  32)

     Estimated max dynamical RAM per process >      16.38 MB

     Estimated total dynamical RAM >      32.76 MB

     Check: negative core charge=   -0.000004

     Initial potential from superposition of free atoms

     starting charge    7.99888, renormalised to    8.00000
     Starting wfcs are    8 randomized atomic wfcs

     total cpu time spent up to now is       56.1 secs

     Self-consistent Calculation

     iteration #  1     ecut=    30.00 Ry     beta= 0.70
     Davidson diagonalization with overlap
     ethr =  1.00E-06,  avg # of iterations =  6.9

     total cpu time spent up to now is       56.3 secs

     total energy              =     -22.82394673 Ry
     Harris-Foulkes estimate   =     -22.83762286 Ry
     estimated scf accuracy    <       0.05885784 Ry

     iteration #  2     ecut=    30.00 Ry     beta= 0.70
     Davidson diagonalization with overlap
     ethr =  7.36E-04,  avg # of iterations =  1.0

     total cpu time spent up to now is       56.4 secs

     total energy              =     -22.82595315 Ry
     Harris-Foulkes estimate   =     -22.82607837 Ry
     estimated scf accuracy    <       0.00259948 Ry

     iteration #  3     ecut=    30.00 Ry     beta= 0.70
     Davidson diagonalization with overlap
     ethr =  3.25E-05,  avg # of iterations =  1.6

     total cpu time spent up to now is       56.5 secs

     total energy              =     -22.82621945 Ry
     Harris-Foulkes estimate   =     -22.82621674 Ry
     estimated scf accuracy    <       0.00002713 Ry

     iteration #  4     ecut=    30.00 Ry     beta= 0.70
     Davidson diagonalization with overlap
     ethr =  3.39E-07,  avg # of iterations =  3.6

     total cpu time spent up to now is       56.7 secs

     total energy              =     -22.82626993 Ry
     Harris-Foulkes estimate   =     -22.82627124 Ry
     estimated scf accuracy    <       0.00000403 Ry

     iteration #  5     ecut=    30.00 Ry     beta= 0.70
     Davidson diagonalization with overlap
     ethr =  5.04E-08,  avg # of iterations =  2.0

     total cpu time spent up to now is       56.8 secs

     total energy              =     -22.82627039 Ry
     Harris-Foulkes estimate   =     -22.82627110 Ry
     estimated scf accuracy    <       0.00000144 Ry

     iteration #  6     ecut=    30.00 Ry     beta= 0.70
     Davidson diagonalization with overlap
     ethr =  1.80E-08,  avg # of iterations =  1.8

     total cpu time spent up to now is       56.9 secs

     total energy              =     -22.82627055 Ry
     Harris-Foulkes estimate   =     -22.82627054 Ry
     estimated scf accuracy    <          1.5E-09 Ry

     iteration #  7     ecut=    30.00 Ry     beta= 0.70
     Davidson diagonalization with overlap
     ethr =  1.91E-11,  avg # of iterations =  4.0

     total cpu time spent up to now is       57.1 secs

     End of self-consistent calculation

          k = 0.0000 0.0000 0.0000 (   749 PWs)   bands (ev):

    -5.8748   5.8039   5.8039   5.8039

          k =-0.3362 0.3362-0.3362 (   790 PWs)   bands (ev):

    -5.1050   1.9452   5.0675   5.0675

          k = 0.6724-0.6724 0.6724 (   778 PWs)   bands (ev):

    -3.6482  -0.9797   4.6379   4.6379

          k = 0.0000 0.6724 0.0000 (   817 PWs)   bands (ev):

    -4.8322   2.2746   3.9848   3.9848

          k = 1.0086-0.3362 1.0086 (   781 PWs)   bands (ev):

    -3.2651  -0.4732   2.3986   3.6769

          k = 0.6724 0.0000 0.6724 (   784 PWs)   bands (ev):

    -3.9108   0.3935   2.2026   4.5182

          k = 0.0000-1.3447 0.0000 (   790 PWs)   bands (ev):

    -1.8831  -1.8831   3.0533   3.0533

          k =-0.6724-1.3447 0.0000 (   772 PWs)   bands (ev):

    -1.7369  -1.7369   2.1176   2.1176

     highest occupied level (ev):     5.8039

!    total energy              =     -22.82627055 Ry
     Harris-Foulkes estimate   =     -22.82627055 Ry
     estimated scf accuracy    <          9.0E-12 Ry

     The total energy is the sum of the following terms:

     one-electron contribution =       4.83710830 Ry
     hartree contribution      =       1.16246020 Ry
     xc contribution           =     -12.26844392 Ry
     ewald contribution        =     -16.55739513 Ry

     convergence has been achieved in   7 iterations

     Forces acting on atoms (cartesian axes, Ry/au):

     atom    1 type  1   force =    -0.00000000   -0.00000000    0.00000000
     atom    2 type  1   force =     0.00000000    0.00000000   -0.00000000

     Total force =     0.000000     Total SCF correction =     0.000000


     Computing stress (Cartesian axis) and pressure

          total   stress  (Ry/bohr**3)                   (kbar)     P=  -13.15
  -0.00008937  -0.00000000  -0.00000000        -13.15     -0.00     -0.00
   0.00000000  -0.00008937  -0.00000000          0.00    -13.15     -0.00
  -0.00000000  -0.00000000  -0.00008937         -0.00     -0.00    -13.15


     Writing output data file si.save/
 
     init_run     :      1.41s CPU      1.44s WALL (       2 calls)
     electrons    :     35.15s CPU     36.12s WALL (      15 calls)
     update_pot   :      5.68s CPU      5.75s WALL (      13 calls)
     forces       :      4.13s CPU      4.25s WALL (      15 calls)
     stress       :      8.10s CPU      8.61s WALL (      15 calls)

     Called by init_run:
     wfcinit      :      0.11s CPU      0.11s WALL (       2 calls)
     potinit      :      0.14s CPU      0.14s WALL (       2 calls)
     hinit0       :      1.10s CPU      1.11s WALL (       2 calls)

     Called by electrons:
     c_bands      :     21.71s CPU     22.27s WALL (     149 calls)
     sum_band     :      7.48s CPU      7.74s WALL (     149 calls)
     v_of_rho     :      3.02s CPU      3.07s WALL (     161 calls)
     newd         :      2.92s CPU      3.02s WALL (     161 calls)
     mix_rho      :      0.42s CPU      0.44s WALL (     149 calls)

     Called by c_bands:
     init_us_2    :      1.20s CPU      1.24s WALL (    2640 calls)
     cegterg      :     16.89s CPU     17.34s WALL (    1192 calls)

     Called by sum_band:
     sum_band:bec :      0.02s CPU      0.02s WALL (    1192 calls)
     addusdens    :      3.35s CPU      3.50s WALL (     149 calls)

     Called by *egterg:
     h_psi        :     14.67s CPU     15.05s WALL (    4014 calls)
     s_psi        :      0.56s CPU      0.58s WALL (    4014 calls)
     g_psi        :      0.10s CPU      0.11s WALL (    2806 calls)
     cdiaghg      :      0.44s CPU      0.46s WALL (    3870 calls)

     Called by h_psi:
     h_psi:pot    :     14.62s CPU     15.00s WALL (    4014 calls)
     h_psi:calbec :      1.05s CPU      1.08s WALL (    4014 calls)
     vloc_psi     :     12.92s CPU     13.25s WALL (    4014 calls)
     add_vuspsi   :      0.62s CPU      0.64s WALL (    4014 calls)

     General routines
     calbec       :      1.56s CPU      1.63s WALL (    5806 calls)
     fft          :      1.96s CPU      2.01s WALL (    2162 calls)
     ffts         :      0.13s CPU      0.13s WALL (     149 calls)
     fftw         :     13.73s CPU     14.09s WALL (   33344 calls)
 
     Parallel routines
     fft_scatt_xy :      1.44s CPU      1.48s WALL (   35655 calls)
     fft_scatt_yz :      6.40s CPU      6.58s WALL (   35655 calls)
 
     PWSCF        :     55.46s CPU     57.25s WALL

 
   This run was terminated on:  21: 9:59  24Jun2019            

=------------------------------------------------------------------------------=
   JOB DONE.
=------------------------------------------------------------------------------=
