
     Program PWSCF v.6.4.1 starts on 27Jun2019 at 22:13:23 

     This program is part of the open-source Quantum ESPRESSO suite
     for quantum simulation of materials; please cite
         "P. Giannozzi et al., J. Phys.:Condens. Matter 21 395502 (2009);
         "P. Giannozzi et al., J. Phys.:Condens. Matter 29 465901 (2017);
          URL http://www.quantum-espresso.org", 
     in publications or presentations arising from this work. More details at
     http://www.quantum-espresso.org/quote

     Parallel version (MPI), running on     2 processors

     MPI processes distributed on     1 nodes
     R & G space division:  proc/nbgrp/npool/nimage =       2
     Reading input from si.0_scf.in

     Current dimensions of program PWSCF are:
     Max number of different atomic species (ntypx) = 10
     Max number of k-points (npk) =  40000
     Max angular momentum in pseudopotentials (lmaxx) =  3

     Subspace diagonalization in iterative solution of the eigenvalue problem:
     a serial algorithm will be used

 
     Parallelization info
     --------------------
     sticks:   dense  smooth     PW     G-vecs:    dense   smooth      PW
     Min         594     297     93                13657     4788     843
     Max         595     298     94                13660     4789     844
     Sum        1189     595    187                27317     9577    1687
 


     bravais-lattice index     =            2
     lattice parameter (alat)  =      10.4109  a.u.
     unit-cell volume          =     282.1019 (a.u.)^3
     number of atoms/cell      =            2
     number of atomic types    =            1
     number of electrons       =         8.00
     number of Kohn-Sham states=            8
     kinetic-energy cutoff     =      40.0000  Ry
     charge density cutoff     =     320.0000  Ry
     convergence threshold     =      1.0E-08
     mixing beta               =       0.7000
     number of iterations used =            8  plain     mixing
     Exchange-correlation      = PBE ( 1  4  3  4 0 0)

     celldm(1)=  10.410909  celldm(2)=   0.000000  celldm(3)=   0.000000
     celldm(4)=   0.000000  celldm(5)=   0.000000  celldm(6)=   0.000000

     crystal axes: (cart. coord. in units of alat)
               a(1) = (  -0.500000   0.000000   0.500000 )  
               a(2) = (   0.000000   0.500000   0.500000 )  
               a(3) = (  -0.500000   0.500000   0.000000 )  

     reciprocal axes: (cart. coord. in units 2 pi/alat)
               b(1) = ( -1.000000 -1.000000  1.000000 )  
               b(2) = (  1.000000  1.000000  1.000000 )  
               b(3) = ( -1.000000  1.000000 -1.000000 )  


     PseudoPot. # 1 for Si read from file:
     /home/anonymous/quantumEspresso_2019/SSSP_precision_pseudos/Si.pbe-n-rrkjus_psl.1.0.0.UPF
     MD5 check sum: 0b0bb1205258b0d07b9f9672cf965d36
     Pseudo is Ultrasoft + core correction, Zval =  4.0
     Generated using "atomic" code by A. Dal Corso v.5.1
     Using radial grid of 1141 points,  6 beta functions with: 
                l(1) =   0
                l(2) =   0
                l(3) =   1
                l(4) =   1
                l(5) =   2
                l(6) =   2
     Q(r) pseudized with 0 coefficients 


     atomic species   valence    mass     pseudopotential
        Si             4.00    28.08550     Si( 1.00)

     48 Sym. Ops., with inversion, found (24 have fractional translation)



   Cartesian axes

     site n.     atom                  positions (alat units)
         1           Si  tau(   1) = (   0.0000000   0.0000000   0.0000000  )
         2           Si  tau(   2) = (   0.2500000   0.2500000   0.2500000  )

     number of k points=    29
                       cart. coord. in units 2pi/alat
        k(    1) = (   0.0000000   0.0000000   0.0000000), wk =   0.0039062
        k(    2) = (  -0.1250000   0.1250000  -0.1250000), wk =   0.0312500
        k(    3) = (  -0.2500000   0.2500000  -0.2500000), wk =   0.0312500
        k(    4) = (  -0.3750000   0.3750000  -0.3750000), wk =   0.0312500
        k(    5) = (   0.5000000  -0.5000000   0.5000000), wk =   0.0156250
        k(    6) = (   0.0000000   0.2500000   0.0000000), wk =   0.0234375
        k(    7) = (  -0.1250000   0.3750000  -0.1250000), wk =   0.0937500
        k(    8) = (  -0.2500000   0.5000000  -0.2500000), wk =   0.0937500
        k(    9) = (   0.6250000  -0.3750000   0.6250000), wk =   0.0937500
        k(   10) = (   0.5000000  -0.2500000   0.5000000), wk =   0.0937500
        k(   11) = (   0.3750000  -0.1250000   0.3750000), wk =   0.0937500
        k(   12) = (   0.2500000   0.0000000   0.2500000), wk =   0.0468750
        k(   13) = (   0.0000000   0.5000000   0.0000000), wk =   0.0234375
        k(   14) = (  -0.1250000   0.6250000  -0.1250000), wk =   0.0937500
        k(   15) = (   0.7500000  -0.2500000   0.7500000), wk =   0.0937500
        k(   16) = (   0.6250000  -0.1250000   0.6250000), wk =   0.0937500
        k(   17) = (   0.5000000   0.0000000   0.5000000), wk =   0.0468750
        k(   18) = (   0.0000000   0.7500000   0.0000000), wk =   0.0234375
        k(   19) = (   0.8750000  -0.1250000   0.8750000), wk =   0.0937500
        k(   20) = (   0.7500000   0.0000000   0.7500000), wk =   0.0468750
        k(   21) = (   0.0000000  -1.0000000   0.0000000), wk =   0.0117188
        k(   22) = (  -0.2500000   0.5000000   0.0000000), wk =   0.0937500
        k(   23) = (   0.6250000  -0.3750000   0.8750000), wk =   0.1875000
        k(   24) = (   0.5000000  -0.2500000   0.7500000), wk =   0.0937500
        k(   25) = (   0.7500000  -0.2500000   1.0000000), wk =   0.0937500
        k(   26) = (   0.6250000  -0.1250000   0.8750000), wk =   0.1875000
        k(   27) = (   0.5000000   0.0000000   0.7500000), wk =   0.0937500
        k(   28) = (  -0.2500000  -1.0000000   0.0000000), wk =   0.0468750
        k(   29) = (  -0.5000000  -1.0000000   0.0000000), wk =   0.0234375

     Dense  grid:    27317 G-vectors     FFT dimensions: (  48,  48,  48)

     Smooth grid:     9577 G-vectors     FFT dimensions: (  32,  32,  32)

     Estimated max dynamical RAM per process >      53.51 MB

     Estimated total dynamical RAM >     107.02 MB

     Initial potential from superposition of free atoms

     starting charge    7.99888, renormalised to    8.00000
     Starting wfcs are    8 randomized atomic wfcs

     total cpu time spent up to now is        1.3 secs

     Self-consistent Calculation

     iteration #  1     ecut=    40.00 Ry     beta= 0.70
     Davidson diagonalization with overlap
     ethr =  1.00E-02,  avg # of iterations =  3.5

     Threshold (ethr) on eigenvalues was too large:
     Diagonalizing with lowered threshold

     Davidson diagonalization with overlap
     ethr =  6.64E-04,  avg # of iterations =  1.4

     total cpu time spent up to now is        2.8 secs

     total energy              =     -22.83737472 Ry
     Harris-Foulkes estimate   =     -22.84933651 Ry
     estimated scf accuracy    <       0.05261014 Ry

     iteration #  2     ecut=    40.00 Ry     beta= 0.70
     Davidson diagonalization with overlap
     ethr =  6.58E-04,  avg # of iterations =  1.0

     total cpu time spent up to now is        3.5 secs

     total energy              =     -22.83933181 Ry
     Harris-Foulkes estimate   =     -22.83944738 Ry
     estimated scf accuracy    <       0.00218390 Ry

     iteration #  3     ecut=    40.00 Ry     beta= 0.70
     Davidson diagonalization with overlap
     ethr =  2.73E-05,  avg # of iterations =  2.8

     total cpu time spent up to now is        4.3 secs

     total energy              =     -22.83944044 Ry
     Harris-Foulkes estimate   =     -22.83943748 Ry
     estimated scf accuracy    <       0.00003955 Ry

     iteration #  4     ecut=    40.00 Ry     beta= 0.70
     Davidson diagonalization with overlap
     ethr =  4.94E-07,  avg # of iterations =  2.8

     total cpu time spent up to now is        5.1 secs

     total energy              =     -22.83945223 Ry
     Harris-Foulkes estimate   =     -22.83945213 Ry
     estimated scf accuracy    <       0.00000031 Ry

     iteration #  5     ecut=    40.00 Ry     beta= 0.70
     Davidson diagonalization with overlap
     ethr =  3.87E-09,  avg # of iterations =  2.7

     total cpu time spent up to now is        5.9 secs

     total energy              =     -22.83945243 Ry
     Harris-Foulkes estimate   =     -22.83945242 Ry
     estimated scf accuracy    <       0.00000002 Ry

     iteration #  6     ecut=    40.00 Ry     beta= 0.70
     Davidson diagonalization with overlap
     ethr =  2.58E-10,  avg # of iterations =  2.0

     total cpu time spent up to now is        6.6 secs

     End of self-consistent calculation

          k = 0.0000 0.0000 0.0000 (  1243 PWs)   bands (ev):

    -5.9090   5.7619   5.7619   5.7619   8.3058   8.3058   8.3058   8.6346

          k =-0.1250 0.1250-0.1250 (  1218 PWs)   bands (ev):

    -5.7124   4.1728   5.4850   5.4850   8.1293   8.7129   8.7129  10.1037

          k =-0.2500 0.2500-0.2500 (  1215 PWs)   bands (ev):

    -5.1398   1.9093   5.0292   5.0292   7.6396   9.2316   9.2316  12.3280

          k =-0.3750 0.3750-0.3750 (  1203 PWs)   bands (ev):

    -4.2853  -0.0389   4.7100   4.7100   7.2754   9.2146   9.2146  13.5475

          k = 0.5000-0.5000 0.5000 (  1194 PWs)   bands (ev):

    -3.6850  -1.0122   4.6004   4.6004   7.1475   9.1193   9.1193  13.4379

          k = 0.0000 0.2500 0.0000 (  1219 PWs)   bands (ev):

    -5.6461   4.3840   4.9935   4.9935   7.7766   9.3968   9.3968   9.7776

          k =-0.1250 0.3750-0.1250 (  1217 PWs)   bands (ev):

    -5.1951   2.5665   4.4996   4.5510   7.9000   9.2887  10.1443  10.4858

          k =-0.2500 0.5000-0.2500 (  1205 PWs)   bands (ev):

    -4.4137   0.5840   3.9751   4.2374   7.9633   9.2994  10.1780  11.1743

          k = 0.6250-0.3750 0.6250 (  1204 PWs)   bands (ev):

    -3.5979  -0.8128   3.5465   4.2567   7.8844   9.2244   9.8467  12.9972

          k = 0.5000-0.2500 0.5000 (  1199 PWs)   bands (ev):

    -3.8277  -0.4611   3.3779   4.5390   8.0158   9.3551   9.6188  13.4906

          k = 0.3750-0.1250 0.3750 (  1209 PWs)   bands (ev):

    -4.7071   1.2171   3.5360   5.0105   8.3425   9.4021   9.5758  11.8766

          k = 0.2500 0.0000 0.2500 (  1217 PWs)   bands (ev):

    -5.3888   3.0892   4.2092   5.4739   8.6400   8.8497   9.0626  11.0590

          k = 0.0000 0.5000 0.0000 (  1198 PWs)   bands (ev):

    -4.8670   2.2339   3.9508   3.9508   6.9325   8.8950  11.3791  11.3791

          k =-0.1250 0.6250-0.1250 (  1216 PWs)   bands (ev):

    -4.1847   0.8641   3.1995   3.6424   7.1514   8.6710  11.5753  11.9027

          k = 0.7500-0.2500 0.7500 (  1209 PWs)   bands (ev):

    -3.3016  -0.5099   2.3673   3.6431   7.3237  10.1761  11.3026  11.5938

          k = 0.6250-0.1250 0.6250 (  1198 PWs)   bands (ev):

    -3.1116  -0.7514   1.9311   3.9473   7.6263  11.0954  11.1625  12.5671

          k = 0.5000 0.0000 0.5000 (  1203 PWs)   bands (ev):

    -3.9466   0.3558   2.1724   4.4817   8.1811  10.4626  10.7968  11.6860

          k = 0.0000 0.7500 0.0000 (  1206 PWs)   bands (ev):

    -3.6038   0.0752   3.2584   3.2584   6.4470   7.3738  13.5870  13.5871

          k = 0.8750-0.1250 0.8750 (  1205 PWs)   bands (ev):

    -2.7432  -0.9723   2.4768   3.1841   6.7290   7.7644  13.8358  13.8558

          k = 0.7500 0.0000 0.7500 (  1202 PWs)   bands (ev):

    -2.3356  -1.3459   1.6586   3.4311   7.0256   9.8570  13.0433  13.6728

          k = 0.0000-1.0000 0.0000 (  1186 PWs)   bands (ev):

    -1.9202  -1.9202   3.0208   3.0208   6.5555   6.5555  15.4989  15.4989

          k =-0.2500 0.5000 0.0000 (  1216 PWs)   bands (ev):

    -4.6301   1.5069   3.1669   4.3858   8.1982   9.4973   9.9801  11.1381

          k = 0.6250-0.3750 0.8750 (  1205 PWs)   bands (ev):

    -3.7802   0.0201   2.5669   3.9121   8.6076   9.2644  10.6951  11.5820

          k = 0.5000-0.2500 0.7500 (  1198 PWs)   bands (ev):

    -3.1645  -0.8736   2.4330   3.6956   8.7343   8.9242  11.5381  12.7834

          k = 0.7500-0.2500 1.0000 (  1210 PWs)   bands (ev):

    -3.4159  -0.1363   2.5441   3.1248   7.7253   8.4322  11.3732  13.5402

          k = 0.6250-0.1250 0.8750 (  1203 PWs)   bands (ev):

    -2.5841  -1.0649   1.8822   2.9337   8.1626  10.0196  10.9043  13.0169

          k = 0.5000 0.0000 0.7500 (  1203 PWs)   bands (ev):

    -2.9206  -0.7126   1.7243   3.2911   8.6203  10.2449  10.8756  12.6532

          k =-0.2500-1.0000 0.0000 (  1196 PWs)   bands (ev):

    -1.8507  -1.8507   2.4957   2.4957   7.7630   7.7630  13.4108  13.4108

          k =-0.5000-1.0000 0.0000 (  1216 PWs)   bands (ev):

    -1.7749  -1.7749   2.0882   2.0882  10.0384  10.0384  10.6114  10.6114

     highest occupied, lowest unoccupied level (ev):     5.7619    6.4470

!    total energy              =     -22.83945243 Ry
     Harris-Foulkes estimate   =     -22.83945243 Ry
     estimated scf accuracy    <          5.1E-11 Ry

     The total energy is the sum of the following terms:

     one-electron contribution =       4.83571141 Ry
     hartree contribution      =       1.13968858 Ry
     xc contribution           =     -12.25745733 Ry
     ewald contribution        =     -16.55739508 Ry

     convergence has been achieved in   6 iterations

     Writing output data file si.save/
 
     init_run     :      0.69s CPU      0.73s WALL (       1 calls)
     electrons    :      4.89s CPU      5.28s WALL (       1 calls)

     Called by init_run:
     wfcinit      :      0.16s CPU      0.16s WALL (       1 calls)
     potinit      :      0.08s CPU      0.08s WALL (       1 calls)
     hinit0       :      0.30s CPU      0.30s WALL (       1 calls)

     Called by electrons:
     c_bands      :      3.29s CPU      3.33s WALL (       7 calls)
     sum_band     :      0.93s CPU      1.14s WALL (       7 calls)
     v_of_rho     :      0.40s CPU      0.41s WALL (       7 calls)
     newd         :      0.29s CPU      0.44s WALL (       7 calls)
     mix_rho      :      0.04s CPU      0.04s WALL (       7 calls)

     Called by c_bands:
     init_us_2    :      0.14s CPU      0.14s WALL (     435 calls)
     cegterg      :      2.74s CPU      2.77s WALL (     203 calls)

     Called by sum_band:
     sum_band:bec :      0.00s CPU      0.00s WALL (     203 calls)
     addusdens    :      0.29s CPU      0.48s WALL (       7 calls)

     Called by *egterg:
     h_psi        :      2.34s CPU      2.37s WALL (     702 calls)
     s_psi        :      0.08s CPU      0.09s WALL (     702 calls)
     g_psi        :      0.02s CPU      0.02s WALL (     470 calls)
     cdiaghg      :      0.13s CPU      0.13s WALL (     644 calls)

     Called by h_psi:
     h_psi:pot    :      2.33s CPU      2.36s WALL (     702 calls)
     h_psi:calbec :      0.21s CPU      0.21s WALL (     702 calls)
     vloc_psi     :      2.02s CPU      2.04s WALL (     702 calls)
     add_vuspsi   :      0.09s CPU      0.09s WALL (     702 calls)

     General routines
     calbec       :      0.28s CPU      0.28s WALL (     905 calls)
     fft          :      0.27s CPU      0.28s WALL (      90 calls)
     ffts         :      0.01s CPU      0.01s WALL (      14 calls)
     fftw         :      2.13s CPU      2.16s WALL (   10180 calls)
     interpolate  :      0.03s CPU      0.03s WALL (       7 calls)
 
     Parallel routines
     fft_scatt_xy :      0.31s CPU      0.32s WALL (   10284 calls)
     fft_scatt_yz :      1.06s CPU      1.08s WALL (   10284 calls)
 
     PWSCF        :      6.20s CPU      6.65s WALL

 
   This run was terminated on:  22:13:29  27Jun2019            

=------------------------------------------------------------------------------=
   JOB DONE.
=------------------------------------------------------------------------------=
