
     Program PWSCF v.6.4.1 starts on 27Jun2019 at 22:21:24 

     This program is part of the open-source Quantum ESPRESSO suite
     for quantum simulation of materials; please cite
         "P. Giannozzi et al., J. Phys.:Condens. Matter 21 395502 (2009);
         "P. Giannozzi et al., J. Phys.:Condens. Matter 29 465901 (2017);
          URL http://www.quantum-espresso.org", 
     in publications or presentations arising from this work. More details at
     http://www.quantum-espresso.org/quote

     Parallel version (MPI), running on     2 processors

     MPI processes distributed on     1 nodes
     R & G space division:  proc/nbgrp/npool/nimage =       2
     Reading input from si.2_bands.in

     Current dimensions of program PWSCF are:
     Max number of different atomic species (ntypx) = 10
     Max number of k-points (npk) =  40000
     Max angular momentum in pseudopotentials (lmaxx) =  3

     Atomic positions and unit cell read from directory:
     ./outdir/si.save/
 

     Subspace diagonalization in iterative solution of the eigenvalue problem:
     a serial algorithm will be used

 
     Parallelization info
     --------------------
     sticks:   dense  smooth     PW     G-vecs:    dense   smooth      PW
     Min         594     297     93                13657     4788     819
     Max         595     298     94                13660     4789     820
     Sum        1189     595    187                27317     9577    1639
 


     bravais-lattice index     =            2
     lattice parameter (alat)  =      10.4109  a.u.
     unit-cell volume          =     282.1019 (a.u.)^3
     number of atoms/cell      =            2
     number of atomic types    =            1
     number of electrons       =         8.00
     number of Kohn-Sham states=            8
     kinetic-energy cutoff     =      40.0000  Ry
     charge density cutoff     =     320.0000  Ry
     Exchange-correlation      = PBE ( 1  4  3  4 0 0)

     celldm(1)=  10.410909  celldm(2)=   0.000000  celldm(3)=   0.000000
     celldm(4)=   0.000000  celldm(5)=   0.000000  celldm(6)=   0.000000

     crystal axes: (cart. coord. in units of alat)
               a(1) = (  -0.500000   0.000000   0.500000 )  
               a(2) = (   0.000000   0.500000   0.500000 )  
               a(3) = (  -0.500000   0.500000   0.000000 )  

     reciprocal axes: (cart. coord. in units 2 pi/alat)
               b(1) = ( -1.000000 -1.000000  1.000000 )  
               b(2) = (  1.000000  1.000000  1.000000 )  
               b(3) = ( -1.000000  1.000000 -1.000000 )  


     PseudoPot. # 1 for Si read from file:
     /home/anonymous/quantumEspresso_2019/SSSP_precision_pseudos/Si.pbe-n-rrkjus_psl.1.0.0.UPF
     MD5 check sum: 0b0bb1205258b0d07b9f9672cf965d36
     Pseudo is Ultrasoft + core correction, Zval =  4.0
     Generated using "atomic" code by A. Dal Corso v.5.1
     Using radial grid of 1141 points,  6 beta functions with: 
                l(1) =   0
                l(2) =   0
                l(3) =   1
                l(4) =   1
                l(5) =   2
                l(6) =   2
     Q(r) pseudized with 0 coefficients 


     atomic species   valence    mass     pseudopotential
        Si             4.00    28.08550     Si( 1.00)

     48 Sym. Ops., with inversion, found (24 have fractional translation)



   Cartesian axes

     site n.     atom                  positions (alat units)
         1           Si  tau(   1) = (   0.0000000   0.0000000   0.0000000  )
         2           Si  tau(   2) = (   0.2500000   0.2500000   0.2500000  )

     number of k points=    91
                       cart. coord. in units 2pi/alat
        k(    1) = (   0.5000000   0.5000000   0.5000000), wk =   0.0219780
        k(    2) = (   0.4750000   0.4750000   0.4750000), wk =   0.0219780
        k(    3) = (   0.4500000   0.4500000   0.4500000), wk =   0.0219780
        k(    4) = (   0.4250000   0.4250000   0.4250000), wk =   0.0219780
        k(    5) = (   0.4000000   0.4000000   0.4000000), wk =   0.0219780
        k(    6) = (   0.3750000   0.3750000   0.3750000), wk =   0.0219780
        k(    7) = (   0.3500000   0.3500000   0.3500000), wk =   0.0219780
        k(    8) = (   0.3250000   0.3250000   0.3250000), wk =   0.0219780
        k(    9) = (   0.3000000   0.3000000   0.3000000), wk =   0.0219780
        k(   10) = (   0.2750000   0.2750000   0.2750000), wk =   0.0219780
        k(   11) = (   0.2500000   0.2500000   0.2500000), wk =   0.0219780
        k(   12) = (   0.2250000   0.2250000   0.2250000), wk =   0.0219780
        k(   13) = (   0.2000000   0.2000000   0.2000000), wk =   0.0219780
        k(   14) = (   0.1750000   0.1750000   0.1750000), wk =   0.0219780
        k(   15) = (   0.1500000   0.1500000   0.1500000), wk =   0.0219780
        k(   16) = (   0.1250000   0.1250000   0.1250000), wk =   0.0219780
        k(   17) = (   0.1000000   0.1000000   0.1000000), wk =   0.0219780
        k(   18) = (   0.0750000   0.0750000   0.0750000), wk =   0.0219780
        k(   19) = (   0.0500000   0.0500000   0.0500000), wk =   0.0219780
        k(   20) = (   0.0250000   0.0250000   0.0250000), wk =   0.0219780
        k(   21) = (   0.0000000   0.0000000   0.0000000), wk =   0.0219780
        k(   22) = (   0.0333333   0.0000000   0.0000000), wk =   0.0219780
        k(   23) = (   0.0666667   0.0000000   0.0000000), wk =   0.0219780
        k(   24) = (   0.1000000   0.0000000   0.0000000), wk =   0.0219780
        k(   25) = (   0.1333333   0.0000000   0.0000000), wk =   0.0219780
        k(   26) = (   0.1666667   0.0000000   0.0000000), wk =   0.0219780
        k(   27) = (   0.2000000   0.0000000   0.0000000), wk =   0.0219780
        k(   28) = (   0.2333333   0.0000000   0.0000000), wk =   0.0219780
        k(   29) = (   0.2666667   0.0000000   0.0000000), wk =   0.0219780
        k(   30) = (   0.3000000   0.0000000   0.0000000), wk =   0.0219780
        k(   31) = (   0.3333333   0.0000000   0.0000000), wk =   0.0219780
        k(   32) = (   0.3666667   0.0000000   0.0000000), wk =   0.0219780
        k(   33) = (   0.4000000   0.0000000   0.0000000), wk =   0.0219780
        k(   34) = (   0.4333333   0.0000000   0.0000000), wk =   0.0219780
        k(   35) = (   0.4666667   0.0000000   0.0000000), wk =   0.0219780
        k(   36) = (   0.5000000   0.0000000   0.0000000), wk =   0.0219780
        k(   37) = (   0.5333333   0.0000000   0.0000000), wk =   0.0219780
        k(   38) = (   0.5666667   0.0000000   0.0000000), wk =   0.0219780
        k(   39) = (   0.6000000   0.0000000   0.0000000), wk =   0.0219780
        k(   40) = (   0.6333333   0.0000000   0.0000000), wk =   0.0219780
        k(   41) = (   0.6666667   0.0000000   0.0000000), wk =   0.0219780
        k(   42) = (   0.7000000   0.0000000   0.0000000), wk =   0.0219780
        k(   43) = (   0.7333333   0.0000000   0.0000000), wk =   0.0219780
        k(   44) = (   0.7666667   0.0000000   0.0000000), wk =   0.0219780
        k(   45) = (   0.8000000   0.0000000   0.0000000), wk =   0.0219780
        k(   46) = (   0.8333333   0.0000000   0.0000000), wk =   0.0219780
        k(   47) = (   0.8666667   0.0000000   0.0000000), wk =   0.0219780
        k(   48) = (   0.9000000   0.0000000   0.0000000), wk =   0.0219780
        k(   49) = (   0.9333333   0.0000000   0.0000000), wk =   0.0219780
        k(   50) = (   0.9666667   0.0000000   0.0000000), wk =   0.0219780
        k(   51) = (   1.0000000   0.0000000   0.0000000), wk =   0.0219780
        k(   52) = (   1.0000000   0.0250000   0.0250000), wk =   0.0219780
        k(   53) = (   1.0000000   0.0500000   0.0500000), wk =   0.0219780
        k(   54) = (   1.0000000   0.0750000   0.0750000), wk =   0.0219780
        k(   55) = (   1.0000000   0.1000000   0.1000000), wk =   0.0219780
        k(   56) = (   1.0000000   0.1250000   0.1250000), wk =   0.0219780
        k(   57) = (   1.0000000   0.1500000   0.1500000), wk =   0.0219780
        k(   58) = (   1.0000000   0.1750000   0.1750000), wk =   0.0219780
        k(   59) = (   1.0000000   0.2000000   0.2000000), wk =   0.0219780
        k(   60) = (   1.0000000   0.2250000   0.2250000), wk =   0.0219780
        k(   61) = (   1.0000000   0.2500000   0.2500000), wk =   0.0219780
        k(   62) = (   0.9666667   0.2416667   0.2416667), wk =   0.0219780
        k(   63) = (   0.9333333   0.2333333   0.2333333), wk =   0.0219780
        k(   64) = (   0.9000000   0.2250000   0.2250000), wk =   0.0219780
        k(   65) = (   0.8666667   0.2166667   0.2166667), wk =   0.0219780
        k(   66) = (   0.8333333   0.2083333   0.2083333), wk =   0.0219780
        k(   67) = (   0.8000000   0.2000000   0.2000000), wk =   0.0219780
        k(   68) = (   0.7666667   0.1916667   0.1916667), wk =   0.0219780
        k(   69) = (   0.7333333   0.1833333   0.1833333), wk =   0.0219780
        k(   70) = (   0.7000000   0.1750000   0.1750000), wk =   0.0219780
        k(   71) = (   0.6666667   0.1666667   0.1666667), wk =   0.0219780
        k(   72) = (   0.6333333   0.1583333   0.1583333), wk =   0.0219780
        k(   73) = (   0.6000000   0.1500000   0.1500000), wk =   0.0219780
        k(   74) = (   0.5666667   0.1416667   0.1416667), wk =   0.0219780
        k(   75) = (   0.5333333   0.1333333   0.1333333), wk =   0.0219780
        k(   76) = (   0.5000000   0.1250000   0.1250000), wk =   0.0219780
        k(   77) = (   0.4666667   0.1166667   0.1166667), wk =   0.0219780
        k(   78) = (   0.4333333   0.1083333   0.1083333), wk =   0.0219780
        k(   79) = (   0.4000000   0.1000000   0.1000000), wk =   0.0219780
        k(   80) = (   0.3666667   0.0916667   0.0916667), wk =   0.0219780
        k(   81) = (   0.3333333   0.0833333   0.0833333), wk =   0.0219780
        k(   82) = (   0.3000000   0.0750000   0.0750000), wk =   0.0219780
        k(   83) = (   0.2666667   0.0666667   0.0666667), wk =   0.0219780
        k(   84) = (   0.2333333   0.0583333   0.0583333), wk =   0.0219780
        k(   85) = (   0.2000000   0.0500000   0.0500000), wk =   0.0219780
        k(   86) = (   0.1666667   0.0416667   0.0416667), wk =   0.0219780
        k(   87) = (   0.1333333   0.0333333   0.0333333), wk =   0.0219780
        k(   88) = (   0.1000000   0.0250000   0.0250000), wk =   0.0219780
        k(   89) = (   0.0666667   0.0166667   0.0166667), wk =   0.0219780
        k(   90) = (   0.0333333   0.0083333   0.0083333), wk =   0.0219780
        k(   91) = (   0.0000000   0.0000000   0.0000000), wk =   0.0219780

     Dense  grid:    27317 G-vectors     FFT dimensions: (  48,  48,  48)

     Smooth grid:     9577 G-vectors     FFT dimensions: (  32,  32,  32)

     Estimated max dynamical RAM per process >      47.41 MB

     Estimated total dynamical RAM >      94.82 MB

     The potential is recalculated from file :
     ./outdir/si.save/charge-density

     Starting wfcs are    8 randomized atomic wfcs

     Band Structure Calculation
     Davidson diagonalization with overlap

     ethr =  1.25E-10,  avg # of iterations = 16.8

     total cpu time spent up to now is        8.7 secs

     End of band structure calculation

          k = 0.5000 0.5000 0.5000 (  1194 PWs)   bands (ev):

    -3.6850  -1.0122   4.6004   4.6004   7.1475   9.1193   9.1193  13.4380

          k = 0.4750 0.4750 0.4750 (  1194 PWs)   bands (ev):

    -3.7179  -0.9643   4.6048   4.6048   7.1527   9.1239   9.1239  13.4449

          k = 0.4500 0.4500 0.4500 (  1197 PWs)   bands (ev):

    -3.8099  -0.8273   4.6180   4.6180   7.1681   9.1373   9.1373  13.4650

          k = 0.4250 0.4250 0.4250 (  1191 PWs)   bands (ev):

    -3.9456  -0.6168   4.6399   4.6399   7.1938   9.1583   9.1583  13.4950

          k = 0.4000 0.4000 0.4000 (  1188 PWs)   bands (ev):

    -4.1085  -0.3495   4.6707   4.6707   7.2297   9.1851   9.1851  13.5279

          k = 0.3750 0.3750 0.3750 (  1203 PWs)   bands (ev):

    -4.2853  -0.0389   4.7100   4.7100   7.2754   9.2146   9.2146  13.5475

          k = 0.3500 0.3500 0.3500 (  1200 PWs)   bands (ev):

    -4.4667   0.3055   4.7579   4.7579   7.3309   9.2429   9.2429  13.5179

          k = 0.3250 0.3250 0.3250 (  1212 PWs)   bands (ev):

    -4.6465   0.6767   4.8141   4.8141   7.3956   9.2648   9.2648  13.3793

          k = 0.3000 0.3000 0.3000 (  1209 PWs)   bands (ev):

    -4.8203   1.0701   4.8784   4.8784   7.4692   9.2744   9.2744  13.1048

          k = 0.2750 0.2750 0.2750 (  1209 PWs)   bands (ev):

    -4.9854   1.4819   4.9503   4.9503   7.5508   9.2652   9.2652  12.7388

          k = 0.2500 0.2500 0.2500 (  1215 PWs)   bands (ev):

    -5.1397   1.9093   5.0292   5.0292   7.6396   9.2316   9.2316  12.3280

          k = 0.2250 0.2250 0.2250 (  1215 PWs)   bands (ev):

    -5.2819   2.3494   5.1143   5.1143   7.7343   9.1703   9.1703  11.8955

          k = 0.2000 0.2000 0.2000 (  1215 PWs)   bands (ev):

    -5.4110   2.7995   5.2044   5.2044   7.8332   9.0819   9.0819  11.4517

          k = 0.1750 0.1750 0.1750 (  1221 PWs)   bands (ev):

    -5.5260   3.2565   5.2978   5.2978   7.9341   8.9708   8.9708  11.0021

          k = 0.1500 0.1500 0.1500 (  1209 PWs)   bands (ev):

    -5.6266   3.7162   5.3923   5.3923   8.0340   8.8447   8.8447  10.5509

          k = 0.1250 0.1250 0.1250 (  1218 PWs)   bands (ev):

    -5.7124   4.1729   5.4850   5.4850   8.1293   8.7130   8.7130  10.1037

          k = 0.1000 0.1000 0.1000 (  1224 PWs)   bands (ev):

    -5.7829   4.6176   5.5720   5.5720   8.2149   8.5855   8.5855   9.6695

          k = 0.0750 0.0750 0.0750 (  1239 PWs)   bands (ev):

    -5.8379   5.0354   5.6486   5.6486   8.2840   8.4724   8.4724   9.2651

          k = 0.0500 0.0500 0.0500 (  1243 PWs)   bands (ev):

    -5.8773   5.3993   5.7092   5.7092   8.3257   8.3831   8.3831   8.9232

          k = 0.0250 0.0250 0.0250 (  1243 PWs)   bands (ev):

    -5.9010   5.6626   5.7483   5.7483   8.3244   8.3256   8.3256   8.7015

          k = 0.0000 0.0000 0.0000 (  1243 PWs)   bands (ev):

    -5.9089   5.7619   5.7619   5.7619   8.3058   8.3058   8.3058   8.6347

          k = 0.0333 0.0000 0.0000 (  1243 PWs)   bands (ev):

    -5.9043   5.7254   5.7420   5.7420   8.2941   8.3315   8.3315   8.6705

          k = 0.0667 0.0000 0.0000 (  1243 PWs)   bands (ev):

    -5.8902   5.6210   5.6846   5.6846   8.2598   8.4062   8.4062   8.7724

          k = 0.1000 0.0000 0.0000 (  1239 PWs)   bands (ev):

    -5.8668   5.4614   5.5958   5.5958   8.2046   8.5239   8.5239   8.9259

          k = 0.1333 0.0000 0.0000 (  1239 PWs)   bands (ev):

    -5.8340   5.2610   5.4832   5.4832   8.1312   8.6769   8.6769   9.1137

          k = 0.1667 0.0000 0.0000 (  1227 PWs)   bands (ev):

    -5.7919   5.0317   5.3539   5.3539   8.0427   8.8579   8.8579   9.3184

          k = 0.2000 0.0000 0.0000 (  1219 PWs)   bands (ev):

    -5.7405   4.7824   5.2139   5.2139   7.9424   9.0610   9.0610   9.5220

          k = 0.2333 0.0000 0.0000 (  1219 PWs)   bands (ev):

    -5.6799   4.5194   5.0678   5.0678   7.8334   9.2813   9.2813   9.7033

          k = 0.2667 0.0000 0.0000 (  1219 PWs)   bands (ev):

    -5.6100   4.2468   4.9189   4.9189   7.7187   9.5154   9.5154   9.8361

          k = 0.3000 0.0000 0.0000 (  1215 PWs)   bands (ev):

    -5.5309   3.9676   4.7698   4.7698   7.6009   9.7607   9.7607   9.8926

          k = 0.3333 0.0000 0.0000 (  1219 PWs)   bands (ev):

    -5.4427   3.6838   4.6225   4.6225   7.4822   9.8575  10.0150  10.0150

          k = 0.3667 0.0000 0.0000 (  1211 PWs)   bands (ev):

    -5.3454   3.3968   4.4782   4.4782   7.3645   9.7397  10.2769  10.2769

          k = 0.4000 0.0000 0.0000 (  1219 PWs)   bands (ev):

    -5.2391   3.1076   4.3382   4.3382   7.2494   9.5640  10.5450  10.5450

          k = 0.4333 0.0000 0.0000 (  1211 PWs)   bands (ev):

    -5.1239   2.8170   4.2032   4.2032   7.1383   9.3543  10.8186  10.8186

          k = 0.4667 0.0000 0.0000 (  1207 PWs)   bands (ev):

    -4.9998   2.5256   4.0739   4.0739   7.0324   9.1277  11.0968  11.0968

          k = 0.5000 0.0000 0.0000 (  1198 PWs)   bands (ev):

    -4.8670   2.2339   3.9508   3.9508   6.9325   8.8950  11.3791  11.3791

          k = 0.5333 0.0000 0.0000 (  1206 PWs)   bands (ev):

    -4.7255   1.9423   3.8344   3.8344   6.8396   8.6631  11.6649  11.6649

          k = 0.5667 0.0000 0.0000 (  1222 PWs)   bands (ev):

    -4.5755   1.6512   3.7249   3.7249   6.7543   8.4365  11.9539  11.9539

          k = 0.6000 0.0000 0.0000 (  1214 PWs)   bands (ev):

    -4.4171   1.3609   3.6227   3.6227   6.6774   8.2180  12.2457  12.2457

          k = 0.6333 0.0000 0.0000 (  1218 PWs)   bands (ev):

    -4.2504   1.0719   3.5281   3.5281   6.6093   8.0095  12.5402  12.5402

          k = 0.6667 0.0000 0.0000 (  1218 PWs)   bands (ev):

    -4.0755   0.7844   3.4411   3.4411   6.5505   7.8123  12.8369  12.8369

          k = 0.7000 0.0000 0.0000 (  1218 PWs)   bands (ev):

    -3.8927   0.4990   3.3620   3.3620   6.5014   7.6273  13.1357  13.1357

          k = 0.7333 0.0000 0.0000 (  1218 PWs)   bands (ev):

    -3.7020   0.2158   3.2909   3.2909   6.4625   7.4551  13.4363  13.4363

          k = 0.7667 0.0000 0.0000 (  1206 PWs)   bands (ev):

    -3.5037  -0.0647   3.2280   3.2280   6.4341   7.2959  13.7381  13.7381

          k = 0.8000 0.0000 0.0000 (  1202 PWs)   bands (ev):

    -3.2979  -0.3420   3.1732   3.1732   6.4166   7.1502  14.0403  14.0403

          k = 0.8333 0.0000 0.0000 (  1198 PWs)   bands (ev):

    -3.0850  -0.6159   3.1268   3.1268   6.4102   7.0178  14.3416  14.3416

          k = 0.8667 0.0000 0.0000 (  1210 PWs)   bands (ev):

    -2.8650  -0.8860   3.0887   3.0887   6.4153   6.8989  14.6393  14.6393

          k = 0.9000 0.0000 0.0000 (  1210 PWs)   bands (ev):

    -2.6383  -1.1518   3.0590   3.0590   6.4321   6.7933  14.9280  14.9280

          k = 0.9333 0.0000 0.0000 (  1210 PWs)   bands (ev):

    -2.4050  -1.4130   3.0378   3.0378   6.4609   6.7010  15.1952  15.1952

          k = 0.9667 0.0000 0.0000 (  1202 PWs)   bands (ev):

    -2.1656  -1.6692   3.0251   3.0251   6.5020   6.6218  15.4090  15.4090

          k = 1.0000 0.0000 0.0000 (  1186 PWs)   bands (ev):

    -1.9202  -1.9202   3.0208   3.0208   6.5555   6.5555  15.4989  15.4989

          k = 1.0000 0.0250 0.0250 (  1202 PWs)   bands (ev):

    -1.9227  -1.9144   2.9861   3.0251   6.5604   6.6082  15.4458  15.4665

          k = 1.0000 0.0500 0.0500 (  1202 PWs)   bands (ev):

    -1.9304  -1.8972   2.8884   3.0377   6.5748   6.7599  15.2988  15.3737

          k = 1.0000 0.0750 0.0750 (  1202 PWs)   bands (ev):

    -1.9440  -1.8684   2.7441   3.0588   6.5990   6.9950  15.0842  15.2314

          k = 1.0000 0.1000 0.1000 (  1202 PWs)   bands (ev):

    -1.9647  -1.8281   2.5717   3.0881   6.6326   7.2960  14.8269  15.0521

          k = 1.0000 0.1250 0.1250 (  1202 PWs)   bands (ev):

    -1.9940  -1.7763   2.3878   3.1257   6.6757   7.6476  14.5449  14.8470

          k = 1.0000 0.1500 0.1500 (  1204 PWs)   bands (ev):

    -2.0338  -1.7131   2.2056   3.1714   6.7280   8.0385  14.2493  14.6249

          k = 1.0000 0.1750 0.1750 (  1202 PWs)   bands (ev):

    -2.0862  -1.6384   2.0351   3.2250   6.7895   8.4602  13.9474  14.3922

          k = 1.0000 0.2000 0.2000 (  1190 PWs)   bands (ev):

    -2.1530  -1.5523   1.8838   3.2863   6.8597   8.9068  13.6439  14.1537

          k = 1.0000 0.2250 0.2250 (  1202 PWs)   bands (ev):

    -2.2359  -1.4548   1.7570   3.3551   6.9386   9.3736  13.3418  13.9024

          k = 1.0000 0.2500 0.2500 (  1202 PWs)   bands (ev):

    -2.3356  -1.3459   1.6586   3.4311   7.0256   9.8571  13.0433  13.5802

          k = 0.9667 0.2417 0.2417 (  1203 PWs)   bands (ev):

    -2.3383  -1.3479   1.7009   3.4088   7.0012   9.7000  13.0759  13.4031

          k = 0.9333 0.2333 0.2333 (  1200 PWs)   bands (ev):

    -2.4185  -1.2750   1.7694   3.3952   6.9886   9.5563  13.0083  13.1835

          k = 0.9000 0.2250 0.2250 (  1202 PWs)   bands (ev):

    -2.5562  -1.1438   1.8603   3.3903   6.9876   9.4267  12.8910  12.9641

          k = 0.8667 0.2167 0.2167 (  1204 PWs)   bands (ev):

    -2.7271  -0.9754   1.9704   3.3942   6.9977   9.3121  12.7460  12.7526

          k = 0.8333 0.2083 0.2083 (  1206 PWs)   bands (ev):

    -2.9152  -0.7833   2.0966   3.4072   7.0182   9.2136  12.5298  12.6057

          k = 0.8000 0.2000 0.2000 (  1207 PWs)   bands (ev):

    -3.1115  -0.5745   2.2366   3.4291   7.0484   9.1324  12.3156  12.4556

          k = 0.7667 0.1917 0.1917 (  1205 PWs)   bands (ev):

    -3.3106  -0.3530   2.3881   3.4602   7.0868   9.0698  12.1035  12.3044

          k = 0.7333 0.1833 0.1833 (  1205 PWs)   bands (ev):

    -3.5090  -0.1207   2.5494   3.5002   7.1320   9.0276  11.8940  12.1528

          k = 0.7000 0.1750 0.1750 (  1207 PWs)   bands (ev):

    -3.7045   0.1209   2.7186   3.5494   7.1822   9.0072  11.6870  12.0005

          k = 0.6667 0.1667 0.1667 (  1204 PWs)   bands (ev):

    -3.8955   0.3711   2.8943   3.6075   7.2355   9.0103  11.4832  11.8464

          k = 0.6333 0.1583 0.1583 (  1208 PWs)   bands (ev):

    -4.0808   0.6294   3.0749   3.6745   7.2901   9.0379  11.2831  11.6895

          k = 0.6000 0.1500 0.1500 (  1212 PWs)   bands (ev):

    -4.2594   0.8952   3.2593   3.7504   7.3446   9.0902  11.0876  11.5281

          k = 0.5667 0.1417 0.1417 (  1215 PWs)   bands (ev):

    -4.4306   1.1682   3.4461   3.8349   7.3980   9.1655  10.8985  11.3606

          k = 0.5333 0.1333 0.1333 (  1214 PWs)   bands (ev):

    -4.5939   1.4481   3.6341   3.9278   7.4502   9.2600  10.7187  11.1857

          k = 0.5000 0.1250 0.1250 (  1223 PWs)   bands (ev):

    -4.7488   1.7346   3.8222   4.0291   7.5017   9.3655  10.5539  11.0019

          k = 0.4667 0.1167 0.1167 (  1220 PWs)   bands (ev):

    -4.8950   2.0273   4.0093   4.1382   7.5534   9.4660  10.4159  10.8086

          k = 0.4333 0.1083 0.1083 (  1222 PWs)   bands (ev):

    -5.0321   2.3257   4.1943   4.2548   7.6064   9.5328  10.3271  10.6057

          k = 0.4000 0.1000 0.1000 (  1216 PWs)   bands (ev):

    -5.1598   2.6295   4.3761   4.3785   7.6618   9.5314  10.3117  10.3939

          k = 0.3667 0.0917 0.0917 (  1214 PWs)   bands (ev):

    -5.2780   2.9378   4.5086   4.5537   7.7202   9.4584  10.1748  10.3561

          k = 0.3333 0.0833 0.0833 (  1212 PWs)   bands (ev):

    -5.3864   3.2499   4.6443   4.7257   7.7821   9.3425   9.9505  10.4034

          k = 0.3000 0.0750 0.0750 (  1216 PWs)   bands (ev):

    -5.4849   3.5647   4.7845   4.8910   7.8474   9.2086   9.7236  10.3906

          k = 0.2667 0.0667 0.0667 (  1215 PWs)   bands (ev):

    -5.5734   3.8806   4.9277   5.0481   7.9153   9.0700   9.4975  10.2787

          k = 0.2333 0.0583 0.0583 (  1213 PWs)   bands (ev):

    -5.6517   4.1955   5.0722   5.1953   7.9847   8.9336   9.2756  10.0751

          k = 0.2000 0.0500 0.0500 (  1218 PWs)   bands (ev):

    -5.7197   4.5062   5.2152   5.3309   8.0537   8.8037   9.0623   9.8152

          k = 0.1667 0.0417 0.0417 (  1230 PWs)   bands (ev):

    -5.7774   4.8080   5.3533   5.4526   8.1200   8.6833   8.8624   9.5327

          k = 0.1333 0.0333 0.0333 (  1236 PWs)   bands (ev):

    -5.8247   5.0937   5.4818   5.5580   8.1807   8.5744   8.6819   9.2538

          k = 0.1000 0.0250 0.0250 (  1240 PWs)   bands (ev):

    -5.8615   5.3518   5.5944   5.6443   8.2325   8.4781   8.5278   9.0016

          k = 0.0667 0.0167 0.0167 (  1243 PWs)   bands (ev):

    -5.8879   5.5651   5.6837   5.7086   8.2723   8.3951   8.4083   8.8012

          k = 0.0333 0.0083 0.0083 (  1243 PWs)   bands (ev):

    -5.9037   5.7099   5.7417   5.7484   8.2973   8.3314   8.3321   8.6760

          k = 0.0000 0.0000 0.0000 (  1243 PWs)   bands (ev):

    -5.9089   5.7619   5.7619   5.7619   8.3058   8.3058   8.3058   8.6347

     Writing output data file si.save/
 
     init_run     :      0.48s CPU      0.53s WALL (       1 calls)
     electrons    :      7.23s CPU      7.37s WALL (       1 calls)

     Called by init_run:
     wfcinit      :      0.00s CPU      0.00s WALL (       1 calls)
     potinit      :      0.06s CPU      0.06s WALL (       1 calls)
     hinit0       :      0.29s CPU      0.31s WALL (       1 calls)

     Called by electrons:
     c_bands      :      7.22s CPU      7.37s WALL (       1 calls)
     v_of_rho     :      0.05s CPU      0.05s WALL (       1 calls)
     newd         :      0.03s CPU      0.05s WALL (       1 calls)

     Called by c_bands:
     init_us_2    :      0.03s CPU      0.03s WALL (      91 calls)
     cegterg      :      6.51s CPU      6.64s WALL (     102 calls)

     Called by sum_band:

     Called by *egterg:
     h_psi        :      5.21s CPU      5.32s WALL (    1721 calls)
     s_psi        :      0.20s CPU      0.21s WALL (    1721 calls)
     g_psi        :      0.06s CPU      0.06s WALL (    1528 calls)
     cdiaghg      :      0.44s CPU      0.44s WALL (    1619 calls)

     Called by h_psi:
     h_psi:pot    :      5.18s CPU      5.29s WALL (    1721 calls)
     h_psi:calbec :      0.44s CPU      0.45s WALL (    1721 calls)
     vloc_psi     :      4.51s CPU      4.60s WALL (    1721 calls)
     add_vuspsi   :      0.22s CPU      0.23s WALL (    1721 calls)

     General routines
     calbec       :      0.43s CPU      0.44s WALL (    1721 calls)
     fft          :      0.03s CPU      0.03s WALL (      13 calls)
     ffts         :      0.00s CPU      0.00s WALL (       1 calls)
     fftw         :      3.96s CPU      4.05s WALL (   19430 calls)
     interpolate  :      0.01s CPU      0.01s WALL (       1 calls)
     davcio       :      0.01s CPU      0.01s WALL (     182 calls)
 
     Parallel routines
     fft_scatt_xy :      0.51s CPU      0.52s WALL (   19444 calls)
     fft_scatt_yz :      1.66s CPU      1.70s WALL (   19444 calls)
 
     PWSCF        :      8.53s CPU      8.76s WALL

 
   This run was terminated on:  22:21:33  27Jun2019            

=------------------------------------------------------------------------------=
   JOB DONE.
=------------------------------------------------------------------------------=
