
     Program BANDS v.6.4.1 starts on 27Jun2019 at 22:22:58 

     This program is part of the open-source Quantum ESPRESSO suite
     for quantum simulation of materials; please cite
         "P. Giannozzi et al., J. Phys.:Condens. Matter 21 395502 (2009);
         "P. Giannozzi et al., J. Phys.:Condens. Matter 29 465901 (2017);
          URL http://www.quantum-espresso.org", 
     in publications or presentations arising from this work. More details at
     http://www.quantum-espresso.org/quote

     Parallel version (MPI), running on     2 processors

     MPI processes distributed on     1 nodes
     R & G space division:  proc/nbgrp/npool/nimage =       2

     Reading data from directory:
     ./outdir/si.save/

     IMPORTANT: XC functional enforced from input :
     Exchange-correlation      = PBE ( 1  4  3  4 0 0)
     Any further DFT definition will be discarded
     Please, verify this is what you really want

 
     Parallelization info
     --------------------
     sticks:   dense  smooth     PW     G-vecs:    dense   smooth      PW
     Min         594     297     93                13657     4788     819
     Max         595     298     94                13660     4789     820
     Sum        1189     595    187                27317     9577    1639
 
     high-symmetry point:  0.5000 0.5000 0.5000   x coordinate   0.0000
     high-symmetry point:  0.0000 0.0000 0.0000   x coordinate   0.8660
     high-symmetry point:  1.0000 0.0000 0.0000   x coordinate   1.8660
     high-symmetry point:  1.0000 0.2500 0.2500   x coordinate   2.2196
     high-symmetry point:  0.0000 0.0000 0.0000   x coordinate   3.2802

     Plottable bands (eV) written to file si.bands.dat.gnu
     Bands written to file si.bands.dat

 **************************************************************************

                    xk=(   0.50000,   0.50000,   0.50000  )

     zone border point and non-symmorphic group 
     symmetry decomposition not available

 **************************************************************************

 **************************************************************************

                    xk=(   0.47500,   0.47500,   0.47500  )

     point group C_3v (3m)  
     there are  3 classes
     the character table:

       E     2C3   3s_v 
A_1    1.00  1.00  1.00
A_2    1.00  1.00 -1.00
E      2.00 -1.00  0.00

     the symmetry operations in each class and the name of the first element:

     E        1
                                                                 
     2C3      2    3
                                                                 
     3s_v     4    5    6
                                                                 

     Band symmetry, C_3v (3m)   point group:

     e(  1 -  1) =     -3.71789  eV     1   --> A_1  L_1       
     e(  2 -  2) =     -0.96430  eV     1   --> A_1  L_1       
     e(  3 -  4) =      4.60477  eV     2   --> E    L_3       
     e(  5 -  5) =      7.15265  eV     1   --> A_1  L_1       
     e(  6 -  7) =      9.12390  eV     2   --> E    L_3       
     e(  8 -  8) =     13.44495  eV     1   --> A_1  L_1       

 **************************************************************************

 **************************************************************************

                    xk=(   0.45000,   0.45000,   0.45000  )

     Band symmetry, C_3v (3m)   point group:

     e(  1 -  1) =     -3.80994  eV     1   --> A_1  L_1       
     e(  2 -  2) =     -0.82732  eV     1   --> A_1  L_1       
     e(  3 -  4) =      4.61797  eV     2   --> E    L_3       
     e(  5 -  5) =      7.16812  eV     1   --> A_1  L_1       
     e(  6 -  7) =      9.13729  eV     2   --> E    L_3       
     e(  8 -  8) =     13.46499  eV     1   --> A_1  L_1       

 **************************************************************************

 **************************************************************************

                    xk=(   0.42500,   0.42500,   0.42500  )

     Band symmetry, C_3v (3m)   point group:

     e(  1 -  1) =     -3.94564  eV     1   --> A_1  L_1       
     e(  2 -  2) =     -0.61683  eV     1   --> A_1  L_1       
     e(  3 -  4) =      4.63995  eV     2   --> E    L_3       
     e(  5 -  5) =      7.19384  eV     1   --> A_1  L_1       
     e(  6 -  7) =      9.15833  eV     2   --> E    L_3       
     e(  8 -  8) =     13.49501  eV     1   --> A_1  L_1       

 **************************************************************************

 **************************************************************************

                    xk=(   0.40000,   0.40000,   0.40000  )

     Band symmetry, C_3v (3m)   point group:

     e(  1 -  1) =     -4.10849  eV     1   --> A_1  L_1       
     e(  2 -  2) =     -0.34952  eV     1   --> A_1  L_1       
     e(  3 -  4) =      4.67065  eV     2   --> E    L_3       
     e(  5 -  5) =      7.22967  eV     1   --> A_1  L_1       
     e(  6 -  7) =      9.18507  eV     2   --> E    L_3       
     e(  8 -  8) =     13.52787  eV     1   --> A_1  L_1       

 **************************************************************************

 **************************************************************************

                    xk=(   0.37500,   0.37500,   0.37500  )

     Band symmetry, C_3v (3m)   point group:

     e(  1 -  1) =     -4.28530  eV     1   --> A_1  L_1       
     e(  2 -  2) =     -0.03888  eV     1   --> A_1  L_1       
     e(  3 -  4) =      4.71001  eV     2   --> E    L_3       
     e(  5 -  5) =      7.27544  eV     1   --> A_1  L_1       
     e(  6 -  7) =      9.21457  eV     2   --> E    L_3       
     e(  8 -  8) =     13.54750  eV     1   --> A_1  L_1       

 **************************************************************************

 **************************************************************************

                    xk=(   0.35000,   0.35000,   0.35000  )

     Band symmetry, C_3v (3m)   point group:

     e(  1 -  1) =     -4.46670  eV     1   --> A_1  L_1       
     e(  2 -  2) =      0.30546  eV     1   --> A_1  L_1       
     e(  3 -  4) =      4.75790  eV     2   --> E    L_3       
     e(  5 -  5) =      7.33089  eV     1   --> A_1  L_1       
     e(  6 -  7) =      9.24286  eV     2   --> E    L_3       
     e(  8 -  8) =     13.51792  eV     1   --> A_1  L_1       

 **************************************************************************

 **************************************************************************

                    xk=(   0.32500,   0.32500,   0.32500  )

     Band symmetry, C_3v (3m)   point group:

     e(  1 -  1) =     -4.64645  eV     1   --> A_1  L_1       
     e(  2 -  2) =      0.67672  eV     1   --> A_1  L_1       
     e(  3 -  4) =      4.81412  eV     2   --> E    L_3       
     e(  5 -  5) =      7.39565  eV     1   --> A_1  L_1       
     e(  6 -  7) =      9.26482  eV     2   --> E    L_3       
     e(  8 -  8) =     13.37927  eV     1   --> A_1  L_1       

 **************************************************************************

 **************************************************************************

                    xk=(   0.30000,   0.30000,   0.30000  )

     Band symmetry, C_3v (3m)   point group:

     e(  1 -  1) =     -4.82030  eV     1   --> A_1  L_1       
     e(  2 -  2) =      1.07009  eV     1   --> A_1  L_1       
     e(  3 -  4) =      4.87839  eV     2   --> E    L_3       
     e(  5 -  5) =      7.46920  eV     1   --> A_1  L_1       
     e(  6 -  7) =      9.27441  eV     2   --> E    L_3       
     e(  8 -  8) =     13.10484  eV     1   --> A_1  L_1       

 **************************************************************************

 **************************************************************************

                    xk=(   0.27500,   0.27500,   0.27500  )

     Band symmetry, C_3v (3m)   point group:

     e(  1 -  1) =     -4.98539  eV     1   --> A_1  L_1       
     e(  2 -  2) =      1.48194  eV     1   --> A_1  L_1       
     e(  3 -  4) =      4.95029  eV     2   --> E    L_3       
     e(  5 -  5) =      7.55084  eV     1   --> A_1  L_1       
     e(  6 -  7) =      9.26519  eV     2   --> E    L_3       
     e(  8 -  8) =     12.73884  eV     1   --> A_1  L_1       

 **************************************************************************

 **************************************************************************

                    xk=(   0.25000,   0.25000,   0.25000  )

     Band symmetry, C_3v (3m)   point group:

     e(  1 -  1) =     -5.13974  eV     1   --> A_1  L_1       
     e(  2 -  2) =      1.90928  eV     1   --> A_1  L_1       
     e(  3 -  4) =      5.02921  eV     2   --> E    L_3       
     e(  5 -  5) =      7.63963  eV     1   --> A_1  L_1       
     e(  6 -  7) =      9.23156  eV     2   --> E    L_3       
     e(  8 -  8) =     12.32799  eV     1   --> A_1  L_1       

 **************************************************************************

 **************************************************************************

                    xk=(   0.22500,   0.22500,   0.22500  )

     Band symmetry, C_3v (3m)   point group:

     e(  1 -  1) =     -5.28194  eV     1   --> A_1  L_1       
     e(  2 -  2) =      2.34941  eV     1   --> A_1  L_1       
     e(  3 -  4) =      5.11429  eV     2   --> E    L_3       
     e(  5 -  5) =      7.73431  eV     1   --> A_1  L_1       
     e(  6 -  7) =      9.17030  eV     2   --> E    L_3       
     e(  8 -  8) =     11.89551  eV     1   --> A_1  L_1       

 **************************************************************************

 **************************************************************************

                    xk=(   0.20000,   0.20000,   0.20000  )

     Band symmetry, C_3v (3m)   point group:

     e(  1 -  1) =     -5.41095  eV     1   --> A_1  L_1       
     e(  2 -  2) =      2.79953  eV     1   --> A_1  L_1       
     e(  3 -  4) =      5.20435  eV     2   --> E    L_3       
     e(  5 -  5) =      7.83320  eV     1   --> A_1  L_1       
     e(  6 -  7) =      9.08190  eV     2   --> E    L_3       
     e(  8 -  8) =     11.45171  eV     1   --> A_1  L_1       

 **************************************************************************

 **************************************************************************

                    xk=(   0.17500,   0.17500,   0.17500  )

     Band symmetry, C_3v (3m)   point group:

     e(  1 -  1) =     -5.52605  eV     1   --> A_1  L_1       
     e(  2 -  2) =      3.25647  eV     1   --> A_1  L_1       
     e(  3 -  4) =      5.29776  eV     2   --> E    L_3       
     e(  5 -  5) =      7.93407  eV     1   --> A_1  L_1       
     e(  6 -  7) =      8.97083  eV     2   --> E    L_3       
     e(  8 -  8) =     11.00206  eV     1   --> A_1  L_1       

 **************************************************************************

 **************************************************************************

                    xk=(   0.15000,   0.15000,   0.15000  )

     Band symmetry, C_3v (3m)   point group:

     e(  1 -  1) =     -5.62665  eV     1   --> A_1  L_1       
     e(  2 -  2) =      3.71618  eV     1   --> A_1  L_1       
     e(  3 -  4) =      5.39231  eV     2   --> E    L_3       
     e(  5 -  5) =      8.03404  eV     1   --> A_1  L_1       
     e(  6 -  7) =      8.84472  eV     2   --> E    L_3       
     e(  8 -  8) =     10.55088  eV     1   --> A_1  L_1       

 **************************************************************************

 **************************************************************************

                    xk=(   0.12500,   0.12500,   0.12500  )

     Band symmetry, C_3v (3m)   point group:

     e(  1 -  1) =     -5.71236  eV     1   --> A_1  L_1       
     e(  2 -  2) =      4.17286  eV     1   --> A_1  L_1       
     e(  3 -  4) =      5.48503  eV     2   --> E    L_3       
     e(  5 -  5) =      8.12932  eV     1   --> A_1  L_1       
     e(  6 -  7) =      8.71295  eV     2   --> E    L_3       
     e(  8 -  8) =     10.10367  eV     1   --> A_1  L_1       

 **************************************************************************

 **************************************************************************

                    xk=(   0.10000,   0.10000,   0.10000  )

     Band symmetry, C_3v (3m)   point group:

     e(  1 -  1) =     -5.78286  eV     1   --> A_1  L_1       
     e(  2 -  2) =      4.61762  eV     1   --> A_1  L_1       
     e(  3 -  4) =      5.57205  eV     2   --> E    L_3       
     e(  5 -  5) =      8.21494  eV     1   --> A_1  L_1       
     e(  6 -  7) =      8.58554  eV     2   --> E    L_3       
     e(  8 -  8) =      9.66951  eV     1   --> A_1  L_1       

 **************************************************************************

 **************************************************************************

                    xk=(   0.07500,   0.07500,   0.07500  )

     Band symmetry, C_3v (3m)   point group:

     e(  1 -  1) =     -5.83791  eV     1   --> A_1  L_1       
     e(  2 -  2) =      5.03540  eV     1   --> A_1  L_1       
     e(  3 -  4) =      5.64859  eV     2   --> E    L_3       
     e(  5 -  5) =      8.28405  eV     1   --> A_1  L_1       
     e(  6 -  7) =      8.47245  eV     2   --> E    L_3       
     e(  8 -  8) =      9.26511  eV     1   --> A_1  L_1       

 **************************************************************************

 **************************************************************************

                    xk=(   0.05000,   0.05000,   0.05000  )

     Band symmetry, C_3v (3m)   point group:

     e(  1 -  1) =     -5.87734  eV     1   --> A_1  L_1       
     e(  2 -  2) =      5.39931  eV     1   --> A_1  L_1       
     e(  3 -  4) =      5.70916  eV     2   --> E    L_3       
     e(  5 -  5) =      8.32567  eV     1   --> A_1  L_1       
     e(  6 -  7) =      8.38309  eV     2   --> E    L_3       
     e(  8 -  8) =      8.92322  eV     1   --> A_1  L_1       

 **************************************************************************

 **************************************************************************

                    xk=(   0.02500,   0.02500,   0.02500  )

     Band symmetry, C_3v (3m)   point group:

     e(  1 -  1) =     -5.90104  eV     1   --> A_1  L_1       
     e(  2 -  2) =      5.66257  eV     1   --> A_1  L_1       
     e(  3 -  4) =      5.74833  eV     2   --> E    L_3       
     e(  5 -  5) =      8.32442  eV     1   --> A_1  L_1       
     e(  6 -  7) =      8.32561  eV     2   --> E    L_3       
     e(  8 -  8) =      8.70152  eV     1   --> A_1  L_1       

 **************************************************************************

 **************************************************************************

                    xk=(   0.00000,   0.00000,   0.00000  )

     point group O_h (m-3m) 
     there are 10 classes
     the character table:

       E     8C3   3C2   6C4   6C2'  i     8S6   3s_h  6S4   6s_d 
A_1g   1.00  1.00  1.00  1.00  1.00  1.00  1.00  1.00  1.00  1.00
A_2g   1.00  1.00  1.00 -1.00 -1.00  1.00  1.00  1.00 -1.00 -1.00
E_g    2.00 -1.00  2.00  0.00  0.00  2.00 -1.00  2.00  0.00  0.00
T_1g   3.00  0.00 -1.00  1.00 -1.00  3.00  0.00 -1.00  1.00 -1.00
T_2g   3.00  0.00 -1.00 -1.00  1.00  3.00  0.00 -1.00 -1.00  1.00
A_1u   1.00  1.00  1.00  1.00  1.00 -1.00 -1.00 -1.00 -1.00 -1.00
A_2u   1.00  1.00  1.00 -1.00 -1.00 -1.00 -1.00 -1.00  1.00  1.00
E_u    2.00 -1.00  2.00  0.00  0.00 -2.00  1.00 -2.00  0.00  0.00
T_1u   3.00  0.00 -1.00  1.00 -1.00 -3.00  0.00  1.00 -1.00  1.00
T_2u   3.00  0.00 -1.00 -1.00  1.00 -3.00  0.00  1.00  1.00 -1.00

     the symmetry operations in each class and the name of the first element:

     E        1
                                                                 
     8C3     17   19   20   18   24   21   22   23
                                                                 
     3C2      2    4    3
                                                                 
     6C4      7    8   15   16   12   11
                                                                 
     6C2'     5    6   14   13   10    9
                                                                 
     i       25
                                                                 
     8S6     41   43   44   42   48   45   46   47
                                                                 
     3s_h    26   28   27
                                                                 
     6S4     31   32   39   40   36   35
                                                                 
     6s_d    29   30   38   37   34   33
                                                                 

     Band symmetry, O_h (m-3m)  point group:

     e(  1 -  1) =     -5.90895  eV     1   --> A_1g G_1   G_1+
     e(  2 -  4) =      5.76191  eV     3   --> T_2g G_25' G_5+
     e(  5 -  7) =      8.30576  eV     3   --> T_1u G_15  G_4-
     e(  8 -  8) =      8.63465  eV     1   --> A_2u G_2'  G_2-

 **************************************************************************

 **************************************************************************

                    xk=(   0.03333,   0.00000,   0.00000  )

     point group C_4v (4mm) 
     there are  5 classes
     the character table:

       E     2C4   C2    2s_v  2s_d 
A_1    1.00  1.00  1.00  1.00  1.00
A_2    1.00  1.00  1.00 -1.00 -1.00
B_1    1.00 -1.00  1.00  1.00 -1.00
B_2    1.00 -1.00  1.00 -1.00  1.00
E      2.00  0.00 -2.00  0.00  0.00

     the symmetry operations in each class and the name of the first element:

     E        1
                                                                 
     2C4      3    4
                                                                 
     C2       2
                                                                 
     2s_v     5    6
                                                                 
     2s_d     7    8
                                                                 

     Band symmetry, C_4v (4mm)  point group:

     e(  1 -  1) =     -5.90426  eV     1   --> A_1  G_1 D_1   
     e(  2 -  2) =      5.72535  eV     1   --> B_2  G_4 D_2'  
     e(  3 -  4) =      5.74198  eV     2   --> E    G_5 D_5   
     e(  5 -  5) =      8.29412  eV     1   --> A_1  G_1 D_1   
     e(  6 -  7) =      8.33148  eV     2   --> E    G_5 D_5   
     e(  8 -  8) =      8.67053  eV     1   --> B_2  G_4 D_2'  

 **************************************************************************

 **************************************************************************

                    xk=(   0.06667,   0.00000,   0.00000  )

     Band symmetry, C_4v (4mm)  point group:

     e(  1 -  1) =     -5.89020  eV     1   --> A_1  G_1 D_1   
     e(  2 -  2) =      5.62095  eV     1   --> B_2  G_4 D_2'  
     e(  3 -  4) =      5.68458  eV     2   --> E    G_5 D_5   
     e(  5 -  5) =      8.25982  eV     1   --> A_1  G_1 D_1   
     e(  6 -  7) =      8.40624  eV     2   --> E    G_5 D_5   
     e(  8 -  8) =      8.77238  eV     1   --> B_2  G_4 D_2'  

 **************************************************************************

 **************************************************************************

                    xk=(   0.10000,   0.00000,   0.00000  )

     Band symmetry, C_4v (4mm)  point group:

     e(  1 -  1) =     -5.86678  eV     1   --> A_1  G_1 D_1   
     e(  2 -  2) =      5.46141  eV     1   --> B_2  G_4 D_2'  
     e(  3 -  4) =      5.59579  eV     2   --> E    G_5 D_5   
     e(  5 -  5) =      8.20464  eV     1   --> A_1  G_1 D_1   
     e(  6 -  7) =      8.52392  eV     2   --> E    G_5 D_5   
     e(  8 -  8) =      8.92590  eV     1   --> B_2  G_4 D_2'  

 **************************************************************************

 **************************************************************************

                    xk=(   0.13333,   0.00000,   0.00000  )

     Band symmetry, C_4v (4mm)  point group:

     e(  1 -  1) =     -5.83402  eV     1   --> A_1  G_1 D_1   
     e(  2 -  2) =      5.26096  eV     1   --> B_2  G_4 D_2'  
     e(  3 -  4) =      5.48317  eV     2   --> E    G_5 D_5   
     e(  5 -  5) =      8.13123  eV     1   --> A_1  G_1 D_1   
     e(  6 -  7) =      8.67689  eV     2   --> E    G_5 D_5   
     e(  8 -  8) =      9.11372  eV     1   --> B_2  G_4 D_2'  

 **************************************************************************

 **************************************************************************

                    xk=(   0.16667,   0.00000,   0.00000  )

     Band symmetry, C_4v (4mm)  point group:

     e(  1 -  1) =     -5.79191  eV     1   --> A_1  G_1 D_1   
     e(  2 -  2) =      5.03166  eV     1   --> B_2  G_4 D_2'  
     e(  3 -  4) =      5.35390  eV     2   --> E    G_5 D_5   
     e(  5 -  5) =      8.04271  eV     1   --> A_1  G_1 D_1   
     e(  6 -  7) =      8.85792  eV     2   --> E    G_5 D_5   
     e(  8 -  8) =      9.31842  eV     1   --> B_2  G_4 D_2'  

 **************************************************************************

 **************************************************************************

                    xk=(   0.20000,   0.00000,   0.00000  )

     Band symmetry, C_4v (4mm)  point group:

     e(  1 -  1) =     -5.74051  eV     1   --> A_1  G_1 D_1   
     e(  2 -  2) =      4.78239  eV     1   --> B_2  G_4 D_2'  
     e(  3 -  4) =      5.21390  eV     2   --> E    G_5 D_5   
     e(  5 -  5) =      7.94238  eV     1   --> A_1  G_1 D_1   
     e(  6 -  7) =      9.06095  eV     2   --> E    G_5 D_5   
     e(  8 -  8) =      9.52197  eV     1   --> B_2  G_4 D_2'  

 **************************************************************************

 **************************************************************************

                    xk=(   0.23333,   0.00000,   0.00000  )

     Band symmetry, C_4v (4mm)  point group:

     e(  1 -  1) =     -5.67985  eV     1   --> A_1  G_1 D_1   
     e(  2 -  2) =      4.51935  eV     1   --> B_2  G_4 D_2'  
     e(  3 -  4) =      5.06776  eV     2   --> E    G_5 D_5   
     e(  5 -  5) =      7.83341  eV     1   --> A_1  G_1 D_1   
     e(  6 -  7) =      9.28131  eV     2   --> E    G_5 D_5   
     e(  8 -  8) =      9.70331  eV     1   --> B_2  G_4 D_2'  

 **************************************************************************

 **************************************************************************

                    xk=(   0.26667,   0.00000,   0.00000  )

     Band symmetry, C_4v (4mm)  point group:

     e(  1 -  1) =     -5.60996  eV     1   --> A_1  G_1 D_1   
     e(  2 -  2) =      4.24679  eV     1   --> B_2  G_4 D_2'  
     e(  3 -  4) =      4.91889  eV     2   --> E    G_5 D_5   
     e(  5 -  5) =      7.71872  eV     1   --> A_1  G_1 D_1   
     e(  6 -  7) =      9.51543  eV     2   --> E    G_5 D_5   
     e(  8 -  8) =      9.83615  eV     1   --> B_2  G_4 D_2'  

 **************************************************************************

 **************************************************************************

                    xk=(   0.30000,   0.00000,   0.00000  )

     Band symmetry, C_4v (4mm)  point group:

     e(  1 -  1) =     -5.53087  eV     1   --> A_1  G_1 D_1   
     e(  2 -  2) =      3.96760  eV     1   --> B_2  G_4 D_2'  
     e(  3 -  4) =      4.76983  eV     2   --> E    G_5 D_5   
     e(  5 -  5) =      7.60091  eV     1   --> A_1  G_1 D_1   
     e(  6 -  7) =      9.76067  eV     2   --> E    G_5 D_5   
     e(  8 -  8) =      9.89263  eV     1   --> B_2  G_4 D_2'  

 **************************************************************************

 **************************************************************************

                    xk=(   0.33333,   0.00000,   0.00000  )

     Band symmetry, C_4v (4mm)  point group:

     e(  1 -  1) =     -5.44267  eV     1   --> A_1  G_1 D_1   
     e(  2 -  2) =      3.68379  eV     1   --> B_2  G_4 D_2'  
     e(  3 -  4) =      4.62247  eV     2   --> E    G_5 D_5   
     e(  5 -  5) =      7.48220  eV     1   --> A_1  G_1 D_1   
     e(  6 -  6) =      9.85745  eV     1   --> B_2  G_4 D_2'  
     e(  7 -  8) =     10.01499  eV     2   --> E    G_5 D_5   

 **************************************************************************

 **************************************************************************

                    xk=(   0.36667,   0.00000,   0.00000  )

     Band symmetry, C_4v (4mm)  point group:

     e(  1 -  1) =     -5.34537  eV     1   --> A_1  G_1 D_1   
     e(  2 -  2) =      3.39679  eV     1   --> B_2  G_4 D_2'  
     e(  3 -  4) =      4.47823  eV     2   --> E    G_5 D_5   
     e(  5 -  5) =      7.36450  eV     1   --> A_1  G_1 D_1   
     e(  6 -  6) =      9.73973  eV     1   --> B_2  G_4 D_2'  
     e(  7 -  8) =     10.27685  eV     2   --> E    G_5 D_5   

 **************************************************************************

 **************************************************************************

                    xk=(   0.40000,   0.00000,   0.00000  )

     Band symmetry, C_4v (4mm)  point group:

     e(  1 -  1) =     -5.23909  eV     1   --> A_1  G_1 D_1   
     e(  2 -  2) =      3.10760  eV     1   --> B_2  G_4 D_2'  
     e(  3 -  4) =      4.33819  eV     2   --> E    G_5 D_5   
     e(  5 -  5) =      7.24941  eV     1   --> A_1  G_1 D_1   
     e(  6 -  6) =      9.56402  eV     1   --> B_2  G_4 D_2'  
     e(  7 -  8) =     10.54504  eV     2   --> E    G_5 D_5   

 **************************************************************************

 **************************************************************************

                    xk=(   0.43333,   0.00000,   0.00000  )

     Band symmetry, C_4v (4mm)  point group:

     e(  1 -  1) =     -5.12388  eV     1   --> A_1  G_1 D_1   
     e(  2 -  2) =      2.81702  eV     1   --> B_2  G_4 D_2'  
     e(  3 -  4) =      4.20319  eV     2   --> E    G_5 D_5   
     e(  5 -  5) =      7.13832  eV     1   --> A_1  G_1 D_1   
     e(  6 -  6) =      9.35431  eV     1   --> B_2  G_4 D_2'  
     e(  7 -  8) =     10.81862  eV     2   --> E    G_5 D_5   

 **************************************************************************

 **************************************************************************

                    xk=(   0.46667,   0.00000,   0.00000  )

     Band symmetry, C_4v (4mm)  point group:

     e(  1 -  1) =     -4.99982  eV     1   --> A_1  G_1 D_1   
     e(  2 -  2) =      2.52563  eV     1   --> B_2  G_4 D_2'  
     e(  3 -  4) =      4.07388  eV     2   --> E    G_5 D_5   
     e(  5 -  5) =      7.03236  eV     1   --> A_1  G_1 D_1   
     e(  6 -  6) =      9.12765  eV     1   --> B_2  G_4 D_2'  
     e(  7 -  8) =     11.09683  eV     2   --> E    G_5 D_5   

 **************************************************************************

 **************************************************************************

                    xk=(   0.50000,   0.00000,   0.00000  )

     Band symmetry, C_4v (4mm)  point group:

     e(  1 -  1) =     -4.86699  eV     1   --> A_1  G_1 D_1   
     e(  2 -  2) =      2.23393  eV     1   --> B_2  G_4 D_2'  
     e(  3 -  4) =      3.95080  eV     2   --> E    G_5 D_5   
     e(  5 -  5) =      6.93250  eV     1   --> A_1  G_1 D_1   
     e(  6 -  6) =      8.89497  eV     1   --> B_2  G_4 D_2'  
     e(  7 -  8) =     11.37909  eV     2   --> E    G_5 D_5   

 **************************************************************************

 **************************************************************************

                    xk=(   0.53333,   0.00000,   0.00000  )

     Band symmetry, C_4v (4mm)  point group:

     e(  1 -  1) =     -4.72554  eV     1   --> A_1  G_1 D_1   
     e(  2 -  2) =      1.94232  eV     1   --> B_2  G_4 D_2'  
     e(  3 -  4) =      3.83436  eV     2   --> E    G_5 D_5   
     e(  5 -  5) =      6.83959  eV     1   --> A_1  G_1 D_1   
     e(  6 -  6) =      8.66314  eV     1   --> B_2  G_4 D_2'  
     e(  7 -  8) =     11.66490  eV     2   --> E    G_5 D_5   

 **************************************************************************

 **************************************************************************

                    xk=(   0.56667,   0.00000,   0.00000  )

     Band symmetry, C_4v (4mm)  point group:

     e(  1 -  1) =     -4.57554  eV     1   --> A_1  G_1 D_1   
     e(  2 -  2) =      1.65119  eV     1   --> B_2  G_4 D_2'  
     e(  3 -  4) =      3.72491  eV     2   --> E    G_5 D_5   
     e(  5 -  5) =      6.75435  eV     1   --> A_1  G_1 D_1   
     e(  6 -  6) =      8.43653  eV     1   --> B_2  G_4 D_2'  
     e(  7 -  8) =     11.95388  eV     2   --> E    G_5 D_5   

 **************************************************************************

 **************************************************************************

                    xk=(   0.60000,   0.00000,   0.00000  )

     Band symmetry, C_4v (4mm)  point group:

     e(  1 -  1) =     -4.41710  eV     1   --> A_1  G_1 D_1   
     e(  2 -  2) =      1.36093  eV     1   --> B_2  G_4 D_2'  
     e(  3 -  4) =      3.62274  eV     2   --> E    G_5 D_5   
     e(  5 -  5) =      6.67739  eV     1   --> A_1  G_1 D_1   
     e(  6 -  6) =      8.21801  eV     1   --> B_2  G_4 D_2'  
     e(  7 -  8) =     12.24573  eV     2   --> E    G_5 D_5   

 **************************************************************************

 **************************************************************************

                    xk=(   0.63333,   0.00000,   0.00000  )

     Band symmetry, C_4v (4mm)  point group:

     e(  1 -  1) =     -4.25039  eV     1   --> A_1  G_1 D_1   
     e(  2 -  2) =      1.07189  eV     1   --> B_2  G_4 D_2'  
     e(  3 -  4) =      3.52808  eV     2   --> E    G_5 D_5   
     e(  5 -  5) =      6.60926  eV     1   --> A_1  G_1 D_1   
     e(  6 -  6) =      8.00951  eV     1   --> B_2  G_4 D_2'  
     e(  7 -  8) =     12.54015  eV     2   --> E    G_5 D_5   

 **************************************************************************

 **************************************************************************

                    xk=(   0.66667,   0.00000,   0.00000  )

     Band symmetry, C_4v (4mm)  point group:

     e(  1 -  1) =     -4.07553  eV     1   --> A_1  G_1 D_1   
     e(  2 -  2) =      0.78445  eV     1   --> B_2  G_4 D_2'  
     e(  3 -  4) =      3.44112  eV     2   --> E    G_5 D_5   
     e(  5 -  5) =      6.55046  eV     1   --> A_1  G_1 D_1   
     e(  6 -  6) =      7.81232  eV     1   --> B_2  G_4 D_2'  
     e(  7 -  8) =     12.83691  eV     2   --> E    G_5 D_5   

 **************************************************************************

 **************************************************************************

                    xk=(   0.70000,   0.00000,   0.00000  )

     Band symmetry, C_4v (4mm)  point group:

     e(  1 -  1) =     -3.89268  eV     1   --> A_1  G_1 D_1   
     e(  2 -  2) =      0.49895  eV     1   --> B_2  G_4 D_2'  
     e(  3 -  4) =      3.36203  eV     2   --> E    G_5 D_5   
     e(  5 -  5) =      6.50141  eV     1   --> A_1  G_1 D_1   
     e(  6 -  6) =      7.62731  eV     1   --> B_2  G_4 D_2'  
     e(  7 -  8) =     13.13573  eV     2   --> E    G_5 D_5   

 **************************************************************************

 **************************************************************************

                    xk=(   0.73333,   0.00000,   0.00000  )

     Band symmetry, C_4v (4mm)  point group:

     e(  1 -  1) =     -3.70201  eV     1   --> A_1  G_1 D_1   
     e(  2 -  2) =      0.21579  eV     1   --> B_2  G_4 D_2'  
     e(  3 -  4) =      3.29094  eV     2   --> E    G_5 D_5   
     e(  5 -  5) =      6.46251  eV     1   --> A_1  G_1 D_1   
     e(  6 -  6) =      7.45506  eV     1   --> B_2  G_4 D_2'  
     e(  7 -  8) =     13.43628  eV     2   --> E    G_5 D_5   

 **************************************************************************

 **************************************************************************

                    xk=(   0.76667,   0.00000,   0.00000  )

     Band symmetry, C_4v (4mm)  point group:

     e(  1 -  1) =     -3.50369  eV     1   --> A_1  G_1 D_1   
     e(  2 -  2) =     -0.06466  eV     1   --> B_2  G_4 D_2'  
     e(  3 -  4) =      3.22799  eV     2   --> E    G_5 D_5   
     e(  5 -  5) =      6.43412  eV     1   --> A_1  G_1 D_1   
     e(  6 -  6) =      7.29594  eV     1   --> B_2  G_4 D_2'  
     e(  7 -  8) =     13.73806  eV     2   --> E    G_5 D_5   

 **************************************************************************

 **************************************************************************

                    xk=(   0.80000,   0.00000,   0.00000  )

     Band symmetry, C_4v (4mm)  point group:

     e(  1 -  1) =     -3.29794  eV     1   --> A_1  G_1 D_1   
     e(  2 -  2) =     -0.34202  eV     1   --> B_2  G_4 D_2'  
     e(  3 -  4) =      3.17325  eV     2   --> E    G_5 D_5   
     e(  5 -  5) =      6.41657  eV     1   --> A_1  G_1 D_1   
     e(  6 -  6) =      7.15015  eV     1   --> B_2  G_4 D_2'  
     e(  7 -  8) =     14.04028  eV     2   --> E    G_5 D_5   

 **************************************************************************

 **************************************************************************

                    xk=(   0.83333,   0.00000,   0.00000  )

     Band symmetry, C_4v (4mm)  point group:

     e(  1 -  1) =     -3.08496  eV     1   --> A_1  G_1 D_1   
     e(  2 -  2) =     -0.61591  eV     1   --> B_2  G_4 D_2'  
     e(  3 -  4) =      3.12680  eV     2   --> E    G_5 D_5   
     e(  5 -  5) =      6.41019  eV     1   --> A_1  G_1 D_1   
     e(  6 -  6) =      7.01779  eV     1   --> B_2  G_4 D_2'  
     e(  7 -  8) =     14.34156  eV     2   --> E    G_5 D_5   

 **************************************************************************

 **************************************************************************

                    xk=(   0.86667,   0.00000,   0.00000  )

     Band symmetry, C_4v (4mm)  point group:

     e(  1 -  1) =     -2.86498  eV     1   --> A_1  G_1 D_1   
     e(  2 -  2) =     -0.88596  eV     1   --> B_2  G_4 D_2'  
     e(  3 -  4) =      3.08872  eV     2   --> E    G_5 D_5   
     e(  5 -  5) =      6.41526  eV     1   --> A_1  G_1 D_1   
     e(  6 -  6) =      6.89886  eV     1   --> B_2  G_4 D_2'  
     e(  7 -  8) =     14.63927  eV     2   --> E    G_5 D_5   

 **************************************************************************

 **************************************************************************

                    xk=(   0.90000,   0.00000,   0.00000  )

     Band symmetry, C_4v (4mm)  point group:

     e(  1 -  1) =     -2.63825  eV     1   --> A_1  G_1 D_1   
     e(  2 -  2) =     -1.15176  eV     1   --> B_2  G_4 D_2'  
     e(  3 -  4) =      3.05905  eV     2   --> E    G_5 D_5   
     e(  5 -  5) =      6.43207  eV     1   --> A_1  G_1 D_1   
     e(  6 -  6) =      6.79330  eV     1   --> B_2  G_4 D_2'  
     e(  7 -  8) =     14.92800  eV     2   --> E    G_5 D_5   

 **************************************************************************

 **************************************************************************

                    xk=(   0.93333,   0.00000,   0.00000  )

     Band symmetry, C_4v (4mm)  point group:

     e(  1 -  1) =     -2.40503  eV     1   --> A_1  G_1 D_1   
     e(  2 -  2) =     -1.41297  eV     1   --> B_2  G_4 D_2'  
     e(  3 -  4) =      3.03783  eV     2   --> E    G_5 D_5   
     e(  5 -  5) =      6.46089  eV     1   --> A_1  G_1 D_1   
     e(  6 -  6) =      6.70099  eV     1   --> B_2  G_4 D_2'  
     e(  7 -  8) =     15.19520  eV     2   --> E    G_5 D_5   

 **************************************************************************

 **************************************************************************

                    xk=(   0.96667,   0.00000,   0.00000  )

     Band symmetry, C_4v (4mm)  point group:

     e(  1 -  1) =     -2.16558  eV     1   --> A_1  G_1 D_1   
     e(  2 -  2) =     -1.66923  eV     1   --> B_2  G_4 D_2'  
     e(  3 -  4) =      3.02508  eV     2   --> E    G_5 D_5   
     e(  5 -  5) =      6.50195  eV     1   --> A_1  G_1 D_1   
     e(  6 -  6) =      6.62179  eV     1   --> B_2  G_4 D_2'  
     e(  7 -  8) =     15.40900  eV     2   --> E    G_5 D_5   

 **************************************************************************

 **************************************************************************

                    xk=(   1.00000,   0.00000,   0.00000  )

     zone border point and non-symmorphic group 
     symmetry decomposition not available

 **************************************************************************

 **************************************************************************

                    xk=(   1.00000,   0.02500,   0.02500  )

     zone border point and non-symmorphic group 
     symmetry decomposition not available

 **************************************************************************

 **************************************************************************

                    xk=(   1.00000,   0.05000,   0.05000  )

     zone border point and non-symmorphic group 
     symmetry decomposition not available

 **************************************************************************

 **************************************************************************

                    xk=(   1.00000,   0.07500,   0.07500  )

     zone border point and non-symmorphic group 
     symmetry decomposition not available

 **************************************************************************

 **************************************************************************

                    xk=(   1.00000,   0.10000,   0.10000  )

     zone border point and non-symmorphic group 
     symmetry decomposition not available

 **************************************************************************

 **************************************************************************

                    xk=(   1.00000,   0.12500,   0.12500  )

     zone border point and non-symmorphic group 
     symmetry decomposition not available

 **************************************************************************

 **************************************************************************

                    xk=(   1.00000,   0.15000,   0.15000  )

     zone border point and non-symmorphic group 
     symmetry decomposition not available

 **************************************************************************

 **************************************************************************

                    xk=(   1.00000,   0.17500,   0.17500  )

     zone border point and non-symmorphic group 
     symmetry decomposition not available

 **************************************************************************

 **************************************************************************

                    xk=(   1.00000,   0.20000,   0.20000  )

     zone border point and non-symmorphic group 
     symmetry decomposition not available

 **************************************************************************

 **************************************************************************

                    xk=(   1.00000,   0.22500,   0.22500  )

     zone border point and non-symmorphic group 
     symmetry decomposition not available

 **************************************************************************

 **************************************************************************

                    xk=(   1.00000,   0.25000,   0.25000  )

     zone border point and non-symmorphic group 
     symmetry decomposition not available

 **************************************************************************

 **************************************************************************

                    xk=(   0.96667,   0.24167,   0.24167  )

     point group C_s (m)    
     there are  2 classes
     the character table:

       E     s    
A'     1.00  1.00
A''    1.00 -1.00

     the symmetry operations in each class and the name of the first element:

     E        1
                                                                 
     s        2
                                                                 

     Band symmetry, C_s (m)     point group:

     e(  1 -  1) =     -2.33830  eV     1   --> A'             
     e(  2 -  2) =     -1.34793  eV     1   --> A'             
     e(  3 -  3) =      1.70090  eV     1   --> A'             
     e(  4 -  4) =      3.40882  eV     1   --> A''            
     e(  5 -  5) =      7.00120  eV     1   --> A'             
     e(  6 -  6) =      9.69999  eV     1   --> A'             
     e(  7 -  7) =     13.07591  eV     1   --> A''            
     e(  8 -  8) =     13.40308  eV     1   --> A'             

 **************************************************************************

 **************************************************************************

                    xk=(   0.93333,   0.23333,   0.23333  )

     Band symmetry, C_s (m)     point group:

     e(  1 -  1) =     -2.41854  eV     1   --> A'             
     e(  2 -  2) =     -1.27504  eV     1   --> A'             
     e(  3 -  3) =      1.76940  eV     1   --> A'             
     e(  4 -  4) =      3.39517  eV     1   --> A''            
     e(  5 -  5) =      6.98860  eV     1   --> A'             
     e(  6 -  6) =      9.55628  eV     1   --> A'             
     e(  7 -  7) =     13.00830  eV     1   --> A''            
     e(  8 -  8) =     13.18353  eV     1   --> A'             

 **************************************************************************

 **************************************************************************

                    xk=(   0.90000,   0.22500,   0.22500  )

     Band symmetry, C_s (m)     point group:

     e(  1 -  1) =     -2.55622  eV     1   --> A'             
     e(  2 -  2) =     -1.14380  eV     1   --> A'             
     e(  3 -  3) =      1.86033  eV     1   --> A'             
     e(  4 -  4) =      3.39027  eV     1   --> A''            
     e(  5 -  5) =      6.98757  eV     1   --> A'             
     e(  6 -  6) =      9.42670  eV     1   --> A'             
     e(  7 -  7) =     12.89100  eV     1   --> A''            
     e(  8 -  8) =     12.96410  eV     1   --> A'             

 **************************************************************************

 **************************************************************************

                    xk=(   0.86667,   0.21667,   0.21667  )

     Band symmetry, C_s (m)     point group:

     e(  1 -  1) =     -2.72708  eV     1   --> A'             
     e(  2 -  2) =     -0.97540  eV     1   --> A'             
     e(  3 -  3) =      1.97036  eV     1   --> A'             
     e(  4 -  4) =      3.39424  eV     1   --> A''            
     e(  5 -  5) =      6.99768  eV     1   --> A'             
     e(  6 -  6) =      9.31214  eV     1   --> A'             
     e(  7 -  7) =     12.74605  eV     1   --> A'             
     e(  8 -  8) =     12.75262  eV     1   --> A''            

 **************************************************************************

 **************************************************************************

                    xk=(   0.83333,   0.20833,   0.20833  )

     Band symmetry, C_s (m)     point group:

     e(  1 -  1) =     -2.91523  eV     1   --> A'             
     e(  2 -  2) =     -0.78327  eV     1   --> A'             
     e(  3 -  3) =      2.09661  eV     1   --> A'             
     e(  4 -  4) =      3.40718  eV     1   --> A''            
     e(  5 -  5) =      7.01825  eV     1   --> A'             
     e(  6 -  6) =      9.21363  eV     1   --> A'             
     e(  7 -  7) =     12.52978  eV     1   --> A'             
     e(  8 -  8) =     12.60570  eV     1   --> A''            

 **************************************************************************

 **************************************************************************

                    xk=(   0.80000,   0.20000,   0.20000  )

     Band symmetry, C_s (m)     point group:

     e(  1 -  1) =     -3.11153  eV     1   --> A'             
     e(  2 -  2) =     -0.57453  eV     1   --> A'             
     e(  3 -  3) =      2.23658  eV     1   --> A'             
     e(  4 -  4) =      3.42914  eV     1   --> A''            
     e(  5 -  5) =      7.04836  eV     1   --> A'             
     e(  6 -  6) =      9.13240  eV     1   --> A'             
     e(  7 -  7) =     12.31555  eV     1   --> A'             
     e(  8 -  8) =     12.45559  eV     1   --> A''            

 **************************************************************************

 **************************************************************************

                    xk=(   0.76667,   0.19167,   0.19167  )

     Band symmetry, C_s (m)     point group:

     e(  1 -  1) =     -3.31060  eV     1   --> A'             
     e(  2 -  2) =     -0.35297  eV     1   --> A'             
     e(  3 -  3) =      2.38814  eV     1   --> A'             
     e(  4 -  4) =      3.46015  eV     1   --> A''            
     e(  5 -  5) =      7.08678  eV     1   --> A'             
     e(  6 -  6) =      9.06985  eV     1   --> A'             
     e(  7 -  7) =     12.10354  eV     1   --> A'             
     e(  8 -  8) =     12.30444  eV     1   --> A''            

 **************************************************************************

 **************************************************************************

                    xk=(   0.73333,   0.18333,   0.18333  )

     Band symmetry, C_s (m)     point group:

     e(  1 -  1) =     -3.50903  eV     1   --> A'             
     e(  2 -  2) =     -0.12073  eV     1   --> A'             
     e(  3 -  3) =      2.54937  eV     1   --> A'             
     e(  4 -  4) =      3.50023  eV     1   --> A''            
     e(  5 -  5) =      7.13198  eV     1   --> A'             
     e(  6 -  6) =      9.02757  eV     1   --> A'             
     e(  7 -  7) =     11.89395  eV     1   --> A'             
     e(  8 -  8) =     12.15283  eV     1   --> A''            

 **************************************************************************

 **************************************************************************

                    xk=(   0.70000,   0.17500,   0.17500  )

     Band symmetry, C_s (m)     point group:

     e(  1 -  1) =     -3.70454  eV     1   --> A'             
     e(  2 -  2) =      0.12091  eV     1   --> A'             
     e(  3 -  3) =      2.71860  eV     1   --> A'             
     e(  4 -  4) =      3.54936  eV     1   --> A''            
     e(  5 -  5) =      7.18220  eV     1   --> A'             
     e(  6 -  6) =      9.00721  eV     1   --> A'             
     e(  7 -  7) =     11.68704  eV     1   --> A'             
     e(  8 -  8) =     12.00045  eV     1   --> A''            

 **************************************************************************

 **************************************************************************

                    xk=(   0.66667,   0.16667,   0.16667  )

     Band symmetry, C_s (m)     point group:

     e(  1 -  1) =     -3.89552  eV     1   --> A'             
     e(  2 -  2) =      0.37113  eV     1   --> A'             
     e(  3 -  3) =      2.89426  eV     1   --> A'             
     e(  4 -  4) =      3.60747  eV     1   --> A''            
     e(  5 -  5) =      7.23552  eV     1   --> A'             
     e(  6 -  6) =      9.01031  eV     1   --> A'             
     e(  7 -  7) =     11.48321  eV     1   --> A'             
     e(  8 -  8) =     11.84642  eV     1   --> A''            

 **************************************************************************

 **************************************************************************

                    xk=(   0.63333,   0.15833,   0.15833  )

     Band symmetry, C_s (m)     point group:

     e(  1 -  1) =     -4.08076  eV     1   --> A'             
     e(  2 -  2) =      0.62936  eV     1   --> A'             
     e(  3 -  3) =      3.07493  eV     1   --> A'             
     e(  4 -  4) =      3.67451  eV     1   --> A''            
     e(  5 -  5) =      7.29013  eV     1   --> A'             
     e(  6 -  6) =      9.03792  eV     1   --> A'             
     e(  7 -  7) =     11.28307  eV     1   --> A'             
     e(  8 -  8) =     11.68946  eV     1   --> A''            

 **************************************************************************

 **************************************************************************

                    xk=(   0.60000,   0.15000,   0.15000  )

     Band symmetry, C_s (m)     point group:

     e(  1 -  1) =     -4.25936  eV     1   --> A'             
     e(  2 -  2) =      0.89516  eV     1   --> A'             
     e(  3 -  3) =      3.25928  eV     1   --> A'             
     e(  4 -  4) =      3.75036  eV     1   --> A''            
     e(  5 -  5) =      7.34456  eV     1   --> A'             
     e(  6 -  6) =      9.09016  eV     1   --> A'             
     e(  7 -  7) =     11.08761  eV     1   --> A'             
     e(  8 -  8) =     11.52807  eV     1   --> A''            

 **************************************************************************

 **************************************************************************

                    xk=(   0.56667,   0.14167,   0.14167  )

     Band symmetry, C_s (m)     point group:

     e(  1 -  1) =     -4.43060  eV     1   --> A'             
     e(  2 -  2) =      1.16819  eV     1   --> A'             
     e(  3 -  3) =      3.44605  eV     1   --> A'             
     e(  4 -  4) =      3.83486  eV     1   --> A''            
     e(  5 -  5) =      7.39795  eV     1   --> A'             
     e(  6 -  6) =      9.16552  eV     1   --> A'             
     e(  7 -  7) =     10.89848  eV     1   --> A'             
     e(  8 -  8) =     11.36064  eV     1   --> A''            

 **************************************************************************

 **************************************************************************

                    xk=(   0.53333,   0.13333,   0.13333  )

     Band symmetry, C_s (m)     point group:

     e(  1 -  1) =     -4.59391  eV     1   --> A'             
     e(  2 -  2) =      1.44811  eV     1   --> A'             
     e(  3 -  3) =      3.63406  eV     1   --> A'             
     e(  4 -  4) =      3.92784  eV     1   --> A''            
     e(  5 -  5) =      7.45015  eV     1   --> A'             
     e(  6 -  6) =      9.26002  eV     1   --> A'             
     e(  7 -  7) =     10.71866  eV     1   --> A'             
     e(  8 -  8) =     11.18565  eV     1   --> A''            

 **************************************************************************

 **************************************************************************

                    xk=(   0.50000,   0.12500,   0.12500  )

     Band symmetry, C_s (m)     point group:

     e(  1 -  1) =     -4.74884  eV     1   --> A'             
     e(  2 -  2) =      1.73459  eV     1   --> A'             
     e(  3 -  3) =      3.82217  eV     1   --> A'             
     e(  4 -  4) =      4.02905  eV     1   --> A''            
     e(  5 -  5) =      7.50165  eV     1   --> A'             
     e(  6 -  6) =      9.36548  eV     1   --> A'             
     e(  7 -  7) =     10.55388  eV     1   --> A'             
     e(  8 -  8) =     11.00187  eV     1   --> A''            

 **************************************************************************

 **************************************************************************

                    xk=(   0.46667,   0.11667,   0.11667  )

     Band symmetry, C_s (m)     point group:

     e(  1 -  1) =     -4.89500  eV     1   --> A'             
     e(  2 -  2) =      2.02727  eV     1   --> A'             
     e(  3 -  3) =      4.00928  eV     1   --> A'             
     e(  4 -  4) =      4.13818  eV     1   --> A''            
     e(  5 -  5) =      7.55338  eV     1   --> A'             
     e(  6 -  6) =      9.46603  eV     1   --> A'             
     e(  7 -  7) =     10.41591  eV     1   --> A'             
     e(  8 -  8) =     10.80856  eV     1   --> A''            

 **************************************************************************

 **************************************************************************

                    xk=(   0.43333,   0.10833,   0.10833  )

     Band symmetry, C_s (m)     point group:

     e(  1 -  1) =     -5.03208  eV     1   --> A'             
     e(  2 -  2) =      2.32573  eV     1   --> A'             
     e(  3 -  3) =      4.19430  eV     1   --> A'             
     e(  4 -  4) =      4.25484  eV     1   --> A''            
     e(  5 -  5) =      7.60643  eV     1   --> A'             
     e(  6 -  6) =      9.53281  eV     1   --> A'             
     e(  7 -  7) =     10.32713  eV     1   --> A'             
     e(  8 -  8) =     10.60567  eV     1   --> A''            

 **************************************************************************

 **************************************************************************

                    xk=(   0.40000,   0.10000,   0.10000  )

     Band symmetry, C_s (m)     point group:

     e(  1 -  1) =     -5.15982  eV     1   --> A'             
     e(  2 -  2) =      2.62946  eV     1   --> A'             
     e(  3 -  3) =      4.37614  eV     1   --> A'             
     e(  4 -  4) =      4.37854  eV     1   --> A''            
     e(  5 -  5) =      7.66180  eV     1   --> A'             
     e(  6 -  6) =      9.53143  eV     1   --> A'             
     e(  7 -  7) =     10.31174  eV     1   --> A'             
     e(  8 -  8) =     10.39393  eV     1   --> A''            

 **************************************************************************

 **************************************************************************

                    xk=(   0.36667,   0.09167,   0.09167  )

     Band symmetry, C_s (m)     point group:

     e(  1 -  1) =     -5.27799  eV     1   --> A'             
     e(  2 -  2) =      2.93781  eV     1   --> A'             
     e(  3 -  3) =      4.50863  eV     1   --> A''            
     e(  4 -  4) =      4.55367  eV     1   --> A'             
     e(  5 -  5) =      7.72025  eV     1   --> A'             
     e(  6 -  6) =      9.45838  eV     1   --> A'             
     e(  7 -  7) =     10.17481  eV     1   --> A''            
     e(  8 -  8) =     10.35613  eV     1   --> A'             

 **************************************************************************

 **************************************************************************

                    xk=(   0.33333,   0.08333,   0.08333  )

     Band symmetry, C_s (m)     point group:

     e(  1 -  1) =     -5.38641  eV     1   --> A'             
     e(  2 -  2) =      3.24993  eV     1   --> A'             
     e(  3 -  3) =      4.64430  eV     1   --> A''            
     e(  4 -  4) =      4.72572  eV     1   --> A'             
     e(  5 -  5) =      7.78214  eV     1   --> A'             
     e(  6 -  6) =      9.34247  eV     1   --> A'             
     e(  7 -  7) =      9.95047  eV     1   --> A''            
     e(  8 -  8) =     10.40339  eV     1   --> A'             

 **************************************************************************

 **************************************************************************

                    xk=(   0.30000,   0.07500,   0.07500  )

     Band symmetry, C_s (m)     point group:

     e(  1 -  1) =     -5.48492  eV     1   --> A'             
     e(  2 -  2) =      3.56471  eV     1   --> A'             
     e(  3 -  3) =      4.78448  eV     1   --> A''            
     e(  4 -  4) =      4.89100  eV     1   --> A'             
     e(  5 -  5) =      7.84736  eV     1   --> A'             
     e(  6 -  6) =      9.20858  eV     1   --> A'             
     e(  7 -  7) =      9.72363  eV     1   --> A''            
     e(  8 -  8) =     10.39055  eV     1   --> A'             

 **************************************************************************

 **************************************************************************

                    xk=(   0.26667,   0.06667,   0.06667  )

     Band symmetry, C_s (m)     point group:

     e(  1 -  1) =     -5.57338  eV     1   --> A'             
     e(  2 -  2) =      3.88063  eV     1   --> A'             
     e(  3 -  3) =      4.92774  eV     1   --> A''            
     e(  4 -  4) =      5.04807  eV     1   --> A'             
     e(  5 -  5) =      7.91527  eV     1   --> A'             
     e(  6 -  6) =      9.06996  eV     1   --> A'             
     e(  7 -  7) =      9.49747  eV     1   --> A''            
     e(  8 -  8) =     10.27873  eV     1   --> A'             

 **************************************************************************

 **************************************************************************

                    xk=(   0.23333,   0.05833,   0.05833  )

     Band symmetry, C_s (m)     point group:

     e(  1 -  1) =     -5.65167  eV     1   --> A'             
     e(  2 -  2) =      4.19550  eV     1   --> A'             
     e(  3 -  3) =      5.07217  eV     1   --> A''            
     e(  4 -  4) =      5.19533  eV     1   --> A'             
     e(  5 -  5) =      7.98466  eV     1   --> A'             
     e(  6 -  6) =      8.93360  eV     1   --> A'             
     e(  7 -  7) =      9.27565  eV     1   --> A''            
     e(  8 -  8) =     10.07513  eV     1   --> A'             

 **************************************************************************

 **************************************************************************

                    xk=(   0.20000,   0.05000,   0.05000  )

     Band symmetry, C_s (m)     point group:

     e(  1 -  1) =     -5.71970  eV     1   --> A'             
     e(  2 -  2) =      4.50620  eV     1   --> A'             
     e(  3 -  3) =      5.21520  eV     1   --> A''            
     e(  4 -  4) =      5.33091  eV     1   --> A'             
     e(  5 -  5) =      8.05372  eV     1   --> A'             
     e(  6 -  6) =      8.80371  eV     1   --> A'             
     e(  7 -  7) =      9.06233  eV     1   --> A''            
     e(  8 -  8) =      9.81516  eV     1   --> A'             

 **************************************************************************

 **************************************************************************

                    xk=(   0.16667,   0.04167,   0.04167  )

     Band symmetry, C_s (m)     point group:

     e(  1 -  1) =     -5.77740  eV     1   --> A'             
     e(  2 -  2) =      4.80800  eV     1   --> A'             
     e(  3 -  3) =      5.35330  eV     1   --> A''            
     e(  4 -  4) =      5.45262  eV     1   --> A'             
     e(  5 -  5) =      8.12004  eV     1   --> A'             
     e(  6 -  6) =      8.68326  eV     1   --> A'             
     e(  7 -  7) =      8.86244  eV     1   --> A''            
     e(  8 -  8) =      9.53273  eV     1   --> A'             

 **************************************************************************

 **************************************************************************

                    xk=(   0.13333,   0.03333,   0.03333  )

     Band symmetry, C_s (m)     point group:

     e(  1 -  1) =     -5.82469  eV     1   --> A'             
     e(  2 -  2) =      5.09365  eV     1   --> A'             
     e(  3 -  3) =      5.48177  eV     1   --> A''            
     e(  4 -  4) =      5.55799  eV     1   --> A'             
     e(  5 -  5) =      8.18072  eV     1   --> A'             
     e(  6 -  6) =      8.57435  eV     1   --> A'             
     e(  7 -  7) =      8.68188  eV     1   --> A''            
     e(  8 -  8) =      9.25381  eV     1   --> A'             

 **************************************************************************

 **************************************************************************

                    xk=(   0.10000,   0.02500,   0.02500  )

     Band symmetry, C_s (m)     point group:

     e(  1 -  1) =     -5.86153  eV     1   --> A'             
     e(  2 -  2) =      5.35180  eV     1   --> A'             
     e(  3 -  3) =      5.59442  eV     1   --> A''            
     e(  4 -  4) =      5.64425  eV     1   --> A'             
     e(  5 -  5) =      8.23254  eV     1   --> A'             
     e(  6 -  6) =      8.47809  eV     1   --> A'             
     e(  7 -  7) =      8.52776  eV     1   --> A''            
     e(  8 -  8) =      9.00160  eV     1   --> A'             

 **************************************************************************

 **************************************************************************

                    xk=(   0.06667,   0.01667,   0.01667  )

     Band symmetry, C_s (m)     point group:

     e(  1 -  1) =     -5.88786  eV     1   --> A'             
     e(  2 -  2) =      5.56513  eV     1   --> A'             
     e(  3 -  3) =      5.68374  eV     1   --> A''            
     e(  4 -  4) =      5.70858  eV     1   --> A'             
     e(  5 -  5) =      8.27230  eV     1   --> A'             
     e(  6 -  6) =      8.39512  eV     1   --> A'             
     e(  7 -  7) =      8.40832  eV     1   --> A''            
     e(  8 -  8) =      8.80121  eV     1   --> A'             

 **************************************************************************

 **************************************************************************

                    xk=(   0.03333,   0.00833,   0.00833  )

     Band symmetry, C_s (m)     point group:

     e(  1 -  1) =     -5.90367  eV     1   --> A'             
     e(  2 -  2) =      5.70995  eV     1   --> A'             
     e(  3 -  3) =      5.74173  eV     1   --> A''            
     e(  4 -  4) =      5.74841  eV     1   --> A'             
     e(  5 -  5) =      8.29727  eV     1   --> A'             
     e(  6 -  6) =      8.33143  eV     1   --> A'             
     e(  7 -  7) =      8.33206  eV     1   --> A''            
     e(  8 -  8) =      8.67597  eV     1   --> A'             

 **************************************************************************

 **************************************************************************

                    xk=(   0.00000,   0.00000,   0.00000  )

     point group O_h (m-3m) 
     there are 10 classes
     the character table:

       E     8C3   3C2   6C4   6C2'  i     8S6   3s_h  6S4   6s_d 
A_1g   1.00  1.00  1.00  1.00  1.00  1.00  1.00  1.00  1.00  1.00
A_2g   1.00  1.00  1.00 -1.00 -1.00  1.00  1.00  1.00 -1.00 -1.00
E_g    2.00 -1.00  2.00  0.00  0.00  2.00 -1.00  2.00  0.00  0.00
T_1g   3.00  0.00 -1.00  1.00 -1.00  3.00  0.00 -1.00  1.00 -1.00
T_2g   3.00  0.00 -1.00 -1.00  1.00  3.00  0.00 -1.00 -1.00  1.00
A_1u   1.00  1.00  1.00  1.00  1.00 -1.00 -1.00 -1.00 -1.00 -1.00
A_2u   1.00  1.00  1.00 -1.00 -1.00 -1.00 -1.00 -1.00  1.00  1.00
E_u    2.00 -1.00  2.00  0.00  0.00 -2.00  1.00 -2.00  0.00  0.00
T_1u   3.00  0.00 -1.00  1.00 -1.00 -3.00  0.00  1.00 -1.00  1.00
T_2u   3.00  0.00 -1.00 -1.00  1.00 -3.00  0.00  1.00  1.00 -1.00

     the symmetry operations in each class and the name of the first element:

     E        1
                                                                 
     8C3     17   19   20   18   24   21   22   23
                                                                 
     3C2      2    4    3
                                                                 
     6C4      7    8   15   16   12   11
                                                                 
     6C2'     5    6   14   13   10    9
                                                                 
     i       25
                                                                 
     8S6     41   43   44   42   48   45   46   47
                                                                 
     3s_h    26   28   27
                                                                 
     6S4     31   32   39   40   36   35
                                                                 
     6s_d    29   30   38   37   34   33
                                                                 

     Band symmetry, O_h (m-3m)  point group:

     e(  1 -  1) =     -5.90895  eV     1   --> A_1g G_1   G_1+
     e(  2 -  4) =      5.76191  eV     3   --> T_2g G_25' G_5+
     e(  5 -  7) =      8.30576  eV     3   --> T_1u G_15  G_4-
     e(  8 -  8) =      8.63465  eV     1   --> A_2u G_2'  G_2-

 **************************************************************************
 
     BANDS        :     18.36s CPU     19.32s WALL

 
   This run was terminated on:  22:23:17  27Jun2019            

=------------------------------------------------------------------------------=
   JOB DONE.
=------------------------------------------------------------------------------=
