
     Program PWSCF v.6.4.1 starts on 19Jul2019 at 21:17:37 

     This program is part of the open-source Quantum ESPRESSO suite
     for quantum simulation of materials; please cite
         "P. Giannozzi et al., J. Phys.:Condens. Matter 21 395502 (2009);
         "P. Giannozzi et al., J. Phys.:Condens. Matter 29 465901 (2017);
          URL http://www.quantum-espresso.org", 
     in publications or presentations arising from this work. More details at
     http://www.quantum-espresso.org/quote

     Parallel version (MPI), running on     2 processors

     MPI processes distributed on     1 nodes
     R & G space division:  proc/nbgrp/npool/nimage =       2
     Reading input from ni.1_scf.in

     Current dimensions of program PWSCF are:
     Max number of different atomic species (ntypx) = 10
     Max number of k-points (npk) =  40000
     Max angular momentum in pseudopotentials (lmaxx) =  3
               file O.pbe-n-kjpaw_psl.0.1.UPF: wavefunction(s)  2P renormalized

     Subspace diagonalization in iterative solution of the eigenvalue problem:
     a serial algorithm will be used

 
     Parallelization info
     --------------------
     sticks:   dense  smooth     PW     G-vecs:    dense   smooth      PW
     Min        1027     412    132                23276     5930    1067
     Max        1028     413    133                23277     5931    1068
     Sum        2055     825    265                46553    11861    2135
 


     bravais-lattice index     =            5
     lattice parameter (alat)  =       9.6715  a.u.
     unit-cell volume          =     246.2189 (a.u.)^3
     number of atoms/cell      =            4
     number of atomic types    =            3
     number of electrons       =        48.00 (up:  24.00, down:  24.00)
     number of Kohn-Sham states=           36
     kinetic-energy cutoff     =      50.0000  Ry
     charge density cutoff     =     500.0000  Ry
     convergence threshold     =      1.0E-09
     mixing beta               =       0.3000
     number of iterations used =            8  plain     mixing
     Exchange-correlation      = SLA PW PBX PBC ( 1  4  3  4 0 0)

     celldm(1)=   9.671550  celldm(2)=   0.000000  celldm(3)=   0.000000
     celldm(4)=   0.833333  celldm(5)=   0.000000  celldm(6)=   0.000000

     crystal axes: (cart. coord. in units of alat)
               a(1) = (   0.288675  -0.166667   0.942809 )  
               a(2) = (   0.000000   0.333333   0.942809 )  
               a(3) = (  -0.288675  -0.166667   0.942809 )  

     reciprocal axes: (cart. coord. in units 2 pi/alat)
               b(1) = (  1.732051 -1.000000  0.353553 )  
               b(2) = (  0.000000  2.000000  0.353553 )  
               b(3) = ( -1.732051 -1.000000  0.353553 )  


     PseudoPot. # 1 for Ni read from file:
     /home/anonymous/quantumEspresso_2019/SSSP_precision_pseudos/ni_pbe_v1.4.uspp.F.UPF
     MD5 check sum: 1ee80287db30b12d2bc1f57a5b5d6409
     Pseudo is Ultrasoft + core correction, Zval = 18.0
     Generated by new atomic code, or converted to UPF format
     Using radial grid of  865 points,  6 beta functions with: 
                l(1) =   0
                l(2) =   0
                l(3) =   1
                l(4) =   1
                l(5) =   2
                l(6) =   2
     Q(r) pseudized with 10 coefficients,  rinner =    0.980   0.980   0.980
                                                       0.980   0.980

     PseudoPot. # 2 for Ni read from file:
     /home/anonymous/quantumEspresso_2019/SSSP_precision_pseudos/ni_pbe_v1.4.uspp.F.UPF
     MD5 check sum: 1ee80287db30b12d2bc1f57a5b5d6409
     Pseudo is Ultrasoft + core correction, Zval = 18.0
     Generated by new atomic code, or converted to UPF format
     Using radial grid of  865 points,  6 beta functions with: 
                l(1) =   0
                l(2) =   0
                l(3) =   1
                l(4) =   1
                l(5) =   2
                l(6) =   2
     Q(r) pseudized with 10 coefficients,  rinner =    0.980   0.980   0.980
                                                       0.980   0.980

     PseudoPot. # 3 for O  read from file:
     /home/anonymous/quantumEspresso_2019/SSSP_precision_pseudos/O.pbe-n-kjpaw_psl.0.1.UPF
     MD5 check sum: 0234752ac141de4415c5fc33072bef88
     Pseudo is Projector augmented-wave + core cor, Zval =  6.0
     Generated using "atomic" code by A. Dal Corso v.5.0.99 svn rev. 10869
     Shape of augmentation charge: BESSEL
     Using radial grid of 1095 points,  4 beta functions with: 
                l(1) =   0
                l(2) =   0
                l(3) =   1
                l(4) =   1
     Q(r) pseudized with 0 coefficients 


     atomic species   valence    mass     pseudopotential
        Ni1           18.00    58.69340     Ni( 1.00)
        Ni2           18.00    58.69340     Ni( 1.00)
        O              6.00    15.99900     O ( 1.00)

     Starting magnetic structure 
     atomic species   magnetization
        Ni1          0.200
        Ni2         -0.200
        O            0.000


     Simplified LDA+U calculation (l_max = 2) with parameters (eV):
     atomic species    L          U    alpha       J0     beta
        Ni1            2     7.6000   0.0000   0.0000   0.0000
        Ni2            2     7.6000   0.0000   0.0000   0.0000



     12 Sym. Ops., with inversion, found



   Cartesian axes

     site n.     atom                  positions (alat units)
         1           Ni1 tau(   1) = (   0.0000000   0.0000000   0.0000000  )
         2           Ni2 tau(   2) = (   0.0000000   0.6666667   0.4714045  )
         3           O   tau(   3) = (   0.2886751  -0.1666667   0.2357023  )
         4           O   tau(   4) = (  -0.2886751   0.1666667  -0.2357023  )

     number of k points=    13
                       cart. coord. in units 2pi/alat
        k(    1) = (   0.0000000   0.0000000   0.0000000), wk =   0.0156250
        k(    2) = (  -0.4330127  -0.2500000   0.0883883), wk =   0.0937500
        k(    3) = (   0.8660254   0.5000000  -0.1767767), wk =   0.0468750
        k(    4) = (  -0.4330127   0.2500000   0.1767767), wk =   0.0937500
        k(    5) = (   0.8660254   1.0000000  -0.0883883), wk =   0.1875000
        k(    6) = (   0.4330127   0.7500000   0.0000000), wk =   0.0937500
        k(    7) = (   0.8660254  -0.5000000  -0.3535534), wk =   0.0468750
        k(    8) = (   0.0000000   0.0000000   0.2651650), wk =   0.0312500
        k(    9) = (   1.2990381   0.7500000   0.0000000), wk =   0.0937500
        k(   10) = (   0.8660254   0.5000000   0.0883883), wk =   0.0937500
        k(   11) = (   1.2990381  -0.7500000  -0.2651650), wk =   0.0937500
        k(   12) = (   0.8660254  -1.0000000  -0.1767767), wk =   0.0937500
        k(   13) = (   0.0000000   0.0000000  -0.5303301), wk =   0.0156250

     Dense  grid:    46553 G-vectors     FFT dimensions: (  72,  72,  72)

     Smooth grid:    11861 G-vectors     FFT dimensions: (  45,  45,  45)

     Estimated max dynamical RAM per process >     130.79 MB

     Estimated total dynamical RAM >     261.59 MB
     Generating pointlists ...
     new r_m :   0.1684 (alat units)  1.6287 (a.u.) for type    1
     new r_m :   0.1684 (alat units)  1.6287 (a.u.) for type    2
     new r_m :   0.1684 (alat units)  1.6287 (a.u.) for type    3

     Check: negative core charge=   -0.000006

     Initial potential from superposition of free atoms

     starting charge   44.00000, renormalised to   48.00000
     Number of +U iterations with fixed ns =  0
     Starting occupations:
 --- enter write_ns ---
 LDA+U parameters:
U( 1)     =  7.60000000
alpha( 1) =  0.00000000
U( 2)     =  7.60000000
alpha( 2) =  0.00000000
atom    1   Tr[ns(na)] (up, down, total) =   5.00000  3.00000  8.00000
   spin  1
    eigenvalues: 
  1.000  1.000  1.000  1.000  1.000
    eigenvectors:
  1.000  0.000  0.000  0.000  0.000
  0.000  1.000  0.000  0.000  0.000
  0.000  0.000  1.000  0.000  0.000
  0.000  0.000  0.000  1.000  0.000
  0.000  0.000  0.000  0.000  1.000
    occupations:
  1.000  0.000  0.000  0.000  0.000
  0.000  1.000  0.000  0.000  0.000
  0.000  0.000  1.000  0.000  0.000
  0.000  0.000  0.000  1.000  0.000
  0.000  0.000  0.000  0.000  1.000
   spin  2
    eigenvalues: 
  0.600  0.600  0.600  0.600  0.600
    eigenvectors:
  1.000  0.000  0.000  0.000  0.000
  0.000  1.000  0.000  0.000  0.000
  0.000  0.000  1.000  0.000  0.000
  0.000  0.000  0.000  1.000  0.000
  0.000  0.000  0.000  0.000  1.000
    occupations:
  0.600  0.000  0.000  0.000  0.000
  0.000  0.600  0.000  0.000  0.000
  0.000  0.000  0.600  0.000  0.000
  0.000  0.000  0.000  0.600  0.000
  0.000  0.000  0.000  0.000  0.600
atomic mag. moment =     2.000000
atom    2   Tr[ns(na)] (up, down, total) =   3.00000  5.00000  8.00000
   spin  1
    eigenvalues: 
  0.600  0.600  0.600  0.600  0.600
    eigenvectors:
  1.000  0.000  0.000  0.000  0.000
  0.000  1.000  0.000  0.000  0.000
  0.000  0.000  1.000  0.000  0.000
  0.000  0.000  0.000  1.000  0.000
  0.000  0.000  0.000  0.000  1.000
    occupations:
  0.600  0.000  0.000  0.000  0.000
  0.000  0.600  0.000  0.000  0.000
  0.000  0.000  0.600  0.000  0.000
  0.000  0.000  0.000  0.600  0.000
  0.000  0.000  0.000  0.000  0.600
   spin  2
    eigenvalues: 
  1.000  1.000  1.000  1.000  1.000
    eigenvectors:
  1.000  0.000  0.000  0.000  0.000
  0.000  1.000  0.000  0.000  0.000
  0.000  0.000  1.000  0.000  0.000
  0.000  0.000  0.000  1.000  0.000
  0.000  0.000  0.000  0.000  1.000
    occupations:
  1.000  0.000  0.000  0.000  0.000
  0.000  1.000  0.000  0.000  0.000
  0.000  0.000  1.000  0.000  0.000
  0.000  0.000  0.000  1.000  0.000
  0.000  0.000  0.000  0.000  1.000
atomic mag. moment =    -2.000000
N of occupied +U levels =   16.000000
 --- exit write_ns ---
 Atomic wfc used for LDA+U Projector are NOT orthogonalized
     Starting wfcs are   34 randomized atomic wfcs +    2 random wfcs
     Checking if some PAW data can be deallocated... 

     total cpu time spent up to now is        3.8 secs

     Self-consistent Calculation

     iteration #  1     ecut=    50.00 Ry     beta= 0.30
     Davidson diagonalization with overlap
     ethr =  1.00E-02,  avg # of iterations =  4.0
 --- enter write_ns ---
 LDA+U parameters:
U( 1)     =  7.60000000
alpha( 1) =  0.00000000
U( 2)     =  7.60000000
alpha( 2) =  0.00000000
atom    1   Tr[ns(na)] (up, down, total) =   3.86476  0.83922  4.70398
   spin  1
    eigenvalues: 
  0.722  0.722  0.761  0.830  0.830
    eigenvectors:
  0.000  0.000  1.000  0.000  0.000
  0.014  0.462  0.000  0.252  0.273
  0.462  0.014  0.000  0.273  0.252
  0.509  0.015  0.000  0.247  0.228
  0.015  0.509  0.000  0.228  0.247
    occupations:
  0.761  0.000  0.000  0.000  0.000
  0.000  0.778  0.000 -0.000  0.054
  0.000  0.000  0.778  0.054 -0.000
  0.000 -0.000  0.054  0.773 -0.000
  0.000  0.054 -0.000 -0.000  0.773
   spin  2
    eigenvalues: 
  0.086  0.086  0.206  0.206  0.254
    eigenvectors:
  0.000  0.000  0.000  0.000  1.000
  0.554  0.143  0.003  0.300  0.000
  0.143  0.554  0.300  0.003  0.000
  0.062  0.240  0.692  0.006  0.000
  0.240  0.062  0.006  0.692  0.000
    occupations:
  0.254  0.000 -0.000  0.000  0.000
  0.000  0.123  0.000 -0.000 -0.055
 -0.000  0.000  0.123 -0.055  0.000
  0.000 -0.000 -0.055  0.170 -0.000
  0.000 -0.055  0.000 -0.000  0.170
atomic mag. moment =     3.025541
atom    2   Tr[ns(na)] (up, down, total) =   0.83921  3.86478  4.70399
   spin  1
    eigenvalues: 
  0.086  0.086  0.206  0.206  0.254
    eigenvectors:
  0.000  0.000  0.000  0.000  1.000
  0.554  0.144  0.003  0.300  0.000
  0.144  0.554  0.300  0.003  0.000
  0.062  0.240  0.692  0.006  0.000
  0.240  0.062  0.006  0.692  0.000
    occupations:
  0.254  0.000 -0.000  0.000  0.000
  0.000  0.123  0.000 -0.000 -0.055
 -0.000  0.000  0.123 -0.055  0.000
  0.000 -0.000 -0.055  0.170 -0.000
  0.000 -0.055  0.000 -0.000  0.170
   spin  2
    eigenvalues: 
  0.722  0.722  0.761  0.830  0.830
    eigenvectors:
  0.000  0.000  1.000  0.000  0.000
  0.014  0.462  0.000  0.252  0.273
  0.462  0.014  0.000  0.273  0.252
  0.509  0.015  0.000  0.247  0.228
  0.015  0.509  0.000  0.228  0.247
    occupations:
  0.761  0.000  0.000  0.000  0.000
  0.000  0.778  0.000 -0.000  0.054
  0.000  0.000  0.778  0.054 -0.000
  0.000 -0.000  0.054  0.773 -0.000
  0.000  0.054 -0.000 -0.000  0.773
atomic mag. moment =    -3.025573
N of occupied +U levels =    9.407968
 --- exit write_ns ---

     total cpu time spent up to now is       12.9 secs

     total energy              =    -756.03841977 Ry
     Harris-Foulkes estimate   =    -778.54944179 Ry
     estimated scf accuracy    <      49.73516517 Ry

     total magnetization       =     0.00 Bohr mag/cell
     absolute magnetization    =     6.69 Bohr mag/cell

     iteration #  2     ecut=    50.00 Ry     beta= 0.30
     Davidson diagonalization with overlap
     ethr =  1.00E-02,  avg # of iterations =  3.0

     total cpu time spent up to now is       21.3 secs

     total energy              =    -766.20712515 Ry
     Harris-Foulkes estimate   =    -770.61392905 Ry
     estimated scf accuracy    <      19.04301319 Ry

     total magnetization       =     0.00 Bohr mag/cell
     absolute magnetization    =     0.51 Bohr mag/cell

     iteration #  3     ecut=    50.00 Ry     beta= 0.30
     Davidson diagonalization with overlap
     ethr =  1.00E-02,  avg # of iterations =  2.0

     total cpu time spent up to now is       27.6 secs

     total energy              =    -769.06601942 Ry
     Harris-Foulkes estimate   =    -768.73507364 Ry
     estimated scf accuracy    <       1.04398195 Ry

     total magnetization       =     0.00 Bohr mag/cell
     absolute magnetization    =     3.91 Bohr mag/cell

     iteration #  4     ecut=    50.00 Ry     beta= 0.30
     Davidson diagonalization with overlap
     ethr =  2.17E-03,  avg # of iterations =  1.0

     total cpu time spent up to now is       33.6 secs

     total energy              =    -769.52222475 Ry
     Harris-Foulkes estimate   =    -769.09382759 Ry
     estimated scf accuracy    <       0.48827085 Ry

     total magnetization       =    -0.00 Bohr mag/cell
     absolute magnetization    =     3.72 Bohr mag/cell

     iteration #  5     ecut=    50.00 Ry     beta= 0.30
     Davidson diagonalization with overlap
     ethr =  1.02E-03,  avg # of iterations =  1.0

     total cpu time spent up to now is       39.3 secs

     total energy              =    -769.53617550 Ry
     Harris-Foulkes estimate   =    -769.53974504 Ry
     estimated scf accuracy    <       0.02008343 Ry

     total magnetization       =     0.00 Bohr mag/cell
     absolute magnetization    =     3.61 Bohr mag/cell

     iteration #  6     ecut=    50.00 Ry     beta= 0.30
     Davidson diagonalization with overlap
     ethr =  4.18E-05,  avg # of iterations =  1.8

     total cpu time spent up to now is       45.4 secs

     total energy              =    -769.53762050 Ry
     Harris-Foulkes estimate   =    -769.53811116 Ry
     estimated scf accuracy    <       0.00150816 Ry

     total magnetization       =     0.00 Bohr mag/cell
     absolute magnetization    =     3.65 Bohr mag/cell

     iteration #  7     ecut=    50.00 Ry     beta= 0.30
     Davidson diagonalization with overlap
     ethr =  3.14E-06,  avg # of iterations =  2.2

     total cpu time spent up to now is       52.3 secs

     total energy              =    -769.53808336 Ry
     Harris-Foulkes estimate   =    -769.53833800 Ry
     estimated scf accuracy    <       0.00087161 Ry

     total magnetization       =     0.00 Bohr mag/cell
     absolute magnetization    =     3.67 Bohr mag/cell

     iteration #  8     ecut=    50.00 Ry     beta= 0.30
     Davidson diagonalization with overlap
     ethr =  1.82E-06,  avg # of iterations =  2.0

     total cpu time spent up to now is       58.2 secs

     total energy              =    -769.53820447 Ry
     Harris-Foulkes estimate   =    -769.53819134 Ry
     estimated scf accuracy    <       0.00004086 Ry

     total magnetization       =     0.00 Bohr mag/cell
     absolute magnetization    =     3.66 Bohr mag/cell

     iteration #  9     ecut=    50.00 Ry     beta= 0.30
     Davidson diagonalization with overlap
     ethr =  8.51E-08,  avg # of iterations =  2.0

     total cpu time spent up to now is       65.1 secs

     total energy              =    -769.53822783 Ry
     Harris-Foulkes estimate   =    -769.53822736 Ry
     estimated scf accuracy    <       0.00004702 Ry

     total magnetization       =     0.00 Bohr mag/cell
     absolute magnetization    =     3.66 Bohr mag/cell

     iteration # 10     ecut=    50.00 Ry     beta= 0.30
     Davidson diagonalization with overlap
     ethr =  8.51E-08,  avg # of iterations =  2.0

     total cpu time spent up to now is       71.3 secs

     total energy              =    -769.53822410 Ry
     Harris-Foulkes estimate   =    -769.53823460 Ry
     estimated scf accuracy    <       0.00000799 Ry

     total magnetization       =    -0.00 Bohr mag/cell
     absolute magnetization    =     3.66 Bohr mag/cell

     iteration # 11     ecut=    50.00 Ry     beta= 0.30
     Davidson diagonalization with overlap
     ethr =  1.67E-08,  avg # of iterations =  2.0

     total cpu time spent up to now is       78.3 secs

     total energy              =    -769.53824752 Ry
     Harris-Foulkes estimate   =    -769.53824688 Ry
     estimated scf accuracy    <       0.00000890 Ry

     total magnetization       =     0.00 Bohr mag/cell
     absolute magnetization    =     3.67 Bohr mag/cell

     iteration # 12     ecut=    50.00 Ry     beta= 0.30
     Davidson diagonalization with overlap
     ethr =  1.67E-08,  avg # of iterations =  2.0

     total cpu time spent up to now is       85.3 secs

     total energy              =    -769.53825188 Ry
     Harris-Foulkes estimate   =    -769.53825222 Ry
     estimated scf accuracy    <       0.00000355 Ry

     total magnetization       =     0.00 Bohr mag/cell
     absolute magnetization    =     3.67 Bohr mag/cell

     iteration # 13     ecut=    50.00 Ry     beta= 0.30
     Davidson diagonalization with overlap
     ethr =  7.40E-09,  avg # of iterations =  1.0

     total cpu time spent up to now is       91.2 secs

     total energy              =    -769.53825230 Ry
     Harris-Foulkes estimate   =    -769.53825221 Ry
     estimated scf accuracy    <       0.00000087 Ry

     total magnetization       =    -0.00 Bohr mag/cell
     absolute magnetization    =     3.67 Bohr mag/cell

     iteration # 14     ecut=    50.00 Ry     beta= 0.30
     Davidson diagonalization with overlap
     ethr =  1.82E-09,  avg # of iterations =  2.0

     total cpu time spent up to now is       98.0 secs

     total energy              =    -769.53825258 Ry
     Harris-Foulkes estimate   =    -769.53825250 Ry
     estimated scf accuracy    <       0.00000004 Ry

     total magnetization       =    -0.00 Bohr mag/cell
     absolute magnetization    =     3.67 Bohr mag/cell

     iteration # 15     ecut=    50.00 Ry     beta= 0.30
     Davidson diagonalization with overlap
     ethr =  7.69E-11,  avg # of iterations =  2.0

     total cpu time spent up to now is      104.7 secs

     total energy              =    -769.53825263 Ry
     Harris-Foulkes estimate   =    -769.53825259 Ry
     estimated scf accuracy    <          2.5E-09 Ry

     total magnetization       =    -0.00 Bohr mag/cell
     absolute magnetization    =     3.67 Bohr mag/cell

     iteration # 16     ecut=    50.00 Ry     beta= 0.30
     Davidson diagonalization with overlap
     ethr =  5.22E-12,  avg # of iterations =  2.0
 
     Magnetic moment per site:
     atom:    1    charge:   15.6116    magn:    1.7037    constr:    0.0000
     atom:    2    charge:   15.6116    magn:   -1.7037    constr:    0.0000
     atom:    3    charge:    5.7443    magn:   -0.0000    constr:    0.0000
     atom:    4    charge:    5.7443    magn:   -0.0000    constr:    0.0000

     total cpu time spent up to now is      111.2 secs

     End of self-consistent calculation
 --- enter write_ns ---
 LDA+U parameters:
U( 1)     =  7.60000000
alpha( 1) =  0.00000000
U( 2)     =  7.60000000
alpha( 2) =  0.00000000
atom    1   Tr[ns(na)] (up, down, total) =   4.98799  3.33554  8.32353
   spin  1
    eigenvalues: 
  0.997  0.997  0.997  0.998  0.998
    eigenvectors:
  1.000  0.000  0.000  0.000  0.000
  0.000  0.018  0.314  0.500  0.168
  0.000  0.314  0.018  0.168  0.500
  0.000  0.632  0.036  0.083  0.249
  0.000  0.036  0.632  0.249  0.083
    occupations:
  0.997  0.000  0.000  0.000  0.000
  0.000  0.998  0.000 -0.000  0.000
  0.000  0.000  0.998  0.000 -0.000
  0.000 -0.000  0.000  0.998 -0.000
  0.000  0.000 -0.000 -0.000  0.998
   spin  2
    eigenvalues: 
  0.176  0.176  0.994  0.994  0.994
    eigenvectors:
  0.000  0.000  1.000  0.000  0.000
  0.498  0.169  0.000  0.018  0.315
  0.169  0.498  0.000  0.315  0.018
  0.085  0.249  0.000  0.630  0.036
  0.249  0.085  0.000  0.036  0.630
    occupations:
  0.994 -0.000 -0.000  0.000  0.000
 -0.000  0.449  0.000 -0.000 -0.386
 -0.000  0.000  0.449 -0.386  0.000
  0.000 -0.000 -0.386  0.721 -0.000
  0.000 -0.386  0.000 -0.000  0.721
atomic mag. moment =     1.652451
atom    2   Tr[ns(na)] (up, down, total) =   3.33554  4.98799  8.32353
   spin  1
    eigenvalues: 
  0.176  0.176  0.994  0.994  0.994
    eigenvectors:
  0.000  0.000  1.000  0.000  0.000
  0.500  0.166  0.000  0.018  0.315
  0.166  0.500  0.000  0.315  0.018
  0.083  0.250  0.000  0.630  0.036
  0.250  0.083  0.000  0.036  0.630
    occupations:
  0.994 -0.000 -0.000  0.000  0.000
 -0.000  0.449  0.000 -0.000 -0.386
 -0.000  0.000  0.449 -0.386  0.000
  0.000 -0.000 -0.386  0.721 -0.000
  0.000 -0.386  0.000 -0.000  0.721
   spin  2
    eigenvalues: 
  0.997  0.997  0.997  0.998  0.998
    eigenvectors:
  1.000  0.000  0.000  0.000  0.000
  0.000  0.018  0.314  0.500  0.168
  0.000  0.314  0.018  0.168  0.500
  0.000  0.632  0.036  0.083  0.249
  0.000  0.036  0.632  0.249  0.083
    occupations:
  0.997  0.000  0.000  0.000  0.000
  0.000  0.998  0.000 -0.000  0.000
  0.000  0.000  0.998  0.000 -0.000
  0.000 -0.000  0.000  0.998 -0.000
  0.000  0.000 -0.000 -0.000  0.998
atomic mag. moment =    -1.652451
N of occupied +U levels =   16.647069
 --- exit write_ns ---

 ------ SPIN UP ------------


          k = 0.0000 0.0000 0.0000 (  1479 PWs)   bands (ev):

   -90.9961 -88.6047 -51.3658 -51.3541 -51.3541 -49.0482 -49.0344 -49.0344
    -5.5487  -4.0711   4.8910   5.8899   5.8899   7.4023   7.4023   7.7242
     8.7775   8.7775  10.5269  11.9354  11.9354  11.9378  12.2152  12.2152
    15.9900  17.1717  17.1717  19.9141  24.6257  28.2668  28.2668  31.9599
    33.0527  33.0540  33.0540  35.4500

          k =-0.4330-0.2500 0.0884 (  1466 PWs)   bands (ev):

   -90.9949 -88.6034 -51.3650 -51.3644 -51.3569 -49.0471 -49.0467 -49.0376
    -4.9584  -4.0678   5.5634   6.0560   6.3032   6.7668   7.5001   7.7825
     7.9882   9.0011  10.0436  10.4130  11.2056  11.2830  12.1611  12.4471
    16.7186  17.0762  19.1277  22.6314  23.7523  25.5179  27.3366  29.4152
    29.4752  30.8300  32.8186  35.2788

          k = 0.8660 0.5000-0.1768 (  1470 PWs)   bands (ev):

   -90.9942 -88.6024 -51.3757 -51.3631 -51.3596 -49.0593 -49.0454 -49.0408
    -4.3935  -3.9190   5.7688   5.9863   6.0533   6.4087   7.6169   7.8936
     8.0103   8.9831   9.8120  10.3105  10.7315  10.9753  11.6963  12.3394
    17.0241  17.0759  21.8263  22.0508  24.0910  24.2659  25.9962  26.0149
    29.7144  29.9268  33.3611  33.3722

          k =-0.4330 0.2500 0.1768 (  1480 PWs)   bands (ev):

   -90.9950 -88.6035 -51.3651 -51.3644 -51.3569 -49.0471 -49.0466 -49.0376
    -4.8826  -4.1610   5.9646   6.0458   6.0510   6.5133   7.5112   7.8922
     8.0485   9.0495  10.0036  10.5309  10.7621  11.0022  12.5609  12.7435
    16.9934  17.0205  18.7992  21.9408  24.1739  26.0039  26.4719  29.8044
    30.5599  30.5768  33.3658  34.5811

          k = 0.8660 1.0000-0.0884 (  1465 PWs)   bands (ev):

   -90.9940 -88.6025 -51.3717 -51.3639 -51.3630 -49.0547 -49.0455 -49.0451
    -4.2711  -4.0539   5.6209   6.2377   6.2768   6.5578   6.9988   7.7714
     8.5606   8.7331  10.0029  10.3168  10.4127  11.0032  11.8193  12.1288
    16.8738  17.2293  21.6829  22.5805  24.3917  24.6356  25.3960  26.1270
    28.9909  29.4366  34.2852  34.6959

          k = 0.4330 0.7500 0.0000 (  1466 PWs)   bands (ev):

   -90.9940 -88.6024 -51.3718 -51.3639 -51.3630 -49.0547 -49.0456 -49.0451
    -4.2653  -4.0666   5.5186   6.4247   6.4840   6.7002   7.1043   7.2377
     8.4610   8.8250  10.1500  10.2625  10.3743  11.1037  11.4620  12.1880
    16.7334  17.4060  21.5898  22.9548  25.1216  25.1222  25.2862  25.4466
    27.7457  29.6513  35.8903  36.3439

          k = 0.8660-0.5000-0.3536 (  1494 PWs)   bands (ev):

   -90.9944 -88.6028 -51.3756 -51.3629 -51.3596 -49.0591 -49.0449 -49.0407
    -4.2387  -4.0710   4.8915   6.0168   6.3376   6.7687   7.7516   7.9819
     8.3450   9.0910   9.3645  10.5407  10.5421  10.5748  12.3264  12.4878
    17.3013  17.4553  19.9144  20.4255  24.6297  25.1967  26.3255  28.2659
    28.2681  31.0498  31.0519  35.4503

          k = 0.0000 0.0000 0.2652 (  1476 PWs)   bands (ev):

   -90.9959 -88.6046 -51.3658 -51.3541 -51.3541 -49.0483 -49.0344 -49.0344
    -5.3643  -4.3300   5.3944   5.9272   5.9272   7.4424   7.4424   7.5317
     8.6591   8.6591  10.3889  11.1757  11.5792  11.5792  12.6748  12.6748
    17.0710  17.0710  17.0717  19.7967  24.9133  28.8961  28.8961  29.2774
    32.4513  32.4513  34.1884  35.0682

          k = 1.2990 0.7500 0.0000 (  1471 PWs)   bands (ev):

   -90.9948 -88.6034 -51.3650 -51.3644 -51.3569 -49.0470 -49.0468 -49.0376
    -4.8021  -4.2459   5.4317   6.0939   6.6595   6.7670   7.5085   7.5376
     8.1500   8.8377   9.7765  10.7481  11.3692  11.7281  11.7795  11.9910
    16.4645  17.2203  20.1205  21.5900  25.2705  25.4430  27.3860  27.6606
    29.6399  30.8369  30.8479  35.8958

          k = 0.8660 0.5000 0.0884 (  1475 PWs)   bands (ev):

   -90.9943 -88.6026 -51.3756 -51.3630 -51.3596 -49.0592 -49.0451 -49.0407
    -4.3334  -3.9778   5.2138   6.0348   6.1323   6.7580   7.6263   7.9945
     8.1710   9.1533   9.4172  10.3375  10.6978  10.7795  12.1450  12.3321
    17.1631  17.2239  20.8510  21.0453  24.3770  25.0520  25.9672  27.1873
    28.7488  30.7320  31.5068  36.1729

          k = 1.2990-0.7500-0.2652 (  1471 PWs)   bands (ev):

   -90.9949 -88.6034 -51.3650 -51.3644 -51.3569 -49.0470 -49.0466 -49.0376
    -4.6331  -4.4318   5.6250   6.0886   6.4655   6.6436   7.5493   7.6714
     8.2138   8.8765   9.6932  10.4301  11.2373  11.4100  12.1103  12.5013
    16.7075  17.1426  19.9538  21.0314  25.5071  25.8220  26.6422  27.9745
    30.1097  30.4657  31.8011  35.2156

          k = 0.8660-1.0000-0.1768 (  1470 PWs)   bands (ev):

   -90.9940 -88.6026 -51.3717 -51.3639 -51.3630 -49.0546 -49.0455 -49.0451
    -4.2764  -4.0417   5.8806   5.9632   6.1343   6.2909   7.1454   8.1540
     8.3016   8.9459   9.9747  10.2910  10.5657  10.6881  12.0049  12.2522
    17.0369  17.0610  21.8567  22.0198  24.0920  24.2649  25.9645  26.0493
    29.7546  29.8863  33.3270  33.4056

          k = 0.0000 0.0000-0.5303 (  1490 PWs)   bands (ev):

   -90.9958 -88.6044 -51.3658 -51.3541 -51.3541 -49.0484 -49.0344 -49.0344
    -4.8885  -4.8767   5.9660   5.9660   6.2238   7.0128   7.4909   7.4909
     8.5319   8.5319  10.1618  10.6600  11.4121  11.4121  12.9492  12.9492
    16.9663  16.9663  18.7384  18.8638  26.4002  26.5349  30.4942  30.4942
    30.6231  30.6231  34.5411  34.6135

 ------ SPIN DOWN ----------


          k = 0.0000 0.0000 0.0000 (  1479 PWs)   bands (ev):

   -90.9961 -88.6047 -51.3658 -51.3541 -51.3541 -49.0482 -49.0344 -49.0344
    -5.5487  -4.0711   4.8910   5.8899   5.8899   7.4023   7.4023   7.7242
     8.7775   8.7775  10.5269  11.9354  11.9354  11.9378  12.2152  12.2152
    15.9900  17.1717  17.1717  19.9141  24.6257  28.2668  28.2668  31.9599
    33.0527  33.0540  33.0540  35.4500

          k =-0.4330-0.2500 0.0884 (  1466 PWs)   bands (ev):

   -90.9949 -88.6034 -51.3650 -51.3644 -51.3569 -49.0471 -49.0467 -49.0376
    -4.9584  -4.0678   5.5634   6.0560   6.3032   6.7668   7.5001   7.7825
     7.9882   9.0011  10.0436  10.4130  11.2056  11.2830  12.1611  12.4471
    16.7186  17.0762  19.1277  22.6314  23.7523  25.5179  27.3366  29.4152
    29.4752  30.8300  32.8186  35.2788

          k = 0.8660 0.5000-0.1768 (  1470 PWs)   bands (ev):

   -90.9942 -88.6024 -51.3757 -51.3631 -51.3596 -49.0593 -49.0454 -49.0408
    -4.3935  -3.9190   5.7688   5.9863   6.0533   6.4087   7.6169   7.8936
     8.0103   8.9831   9.8120  10.3105  10.7315  10.9753  11.6963  12.3394
    17.0241  17.0759  21.8263  22.0508  24.0910  24.2659  25.9962  26.0149
    29.7144  29.9268  33.3611  33.3722

          k =-0.4330 0.2500 0.1768 (  1480 PWs)   bands (ev):

   -90.9950 -88.6035 -51.3651 -51.3644 -51.3569 -49.0471 -49.0466 -49.0376
    -4.8826  -4.1610   5.9646   6.0458   6.0510   6.5133   7.5112   7.8922
     8.0485   9.0495  10.0036  10.5309  10.7621  11.0022  12.5609  12.7435
    16.9934  17.0205  18.7992  21.9408  24.1739  26.0039  26.4719  29.8044
    30.5599  30.5768  33.3658  34.5811

          k = 0.8660 1.0000-0.0884 (  1465 PWs)   bands (ev):

   -90.9940 -88.6025 -51.3717 -51.3639 -51.3630 -49.0547 -49.0455 -49.0451
    -4.2711  -4.0539   5.6209   6.2377   6.2768   6.5578   6.9988   7.7714
     8.5606   8.7331  10.0029  10.3168  10.4127  11.0032  11.8193  12.1288
    16.8738  17.2293  21.6829  22.5805  24.3917  24.6356  25.3960  26.1270
    28.9909  29.4366  34.2852  34.6959

          k = 0.4330 0.7500 0.0000 (  1466 PWs)   bands (ev):

   -90.9940 -88.6024 -51.3718 -51.3639 -51.3630 -49.0547 -49.0456 -49.0451
    -4.2653  -4.0666   5.5186   6.4247   6.4840   6.7002   7.1043   7.2377
     8.4610   8.8250  10.1500  10.2625  10.3743  11.1037  11.4620  12.1880
    16.7334  17.4060  21.5898  22.9548  25.1216  25.1222  25.2862  25.4466
    27.7457  29.6513  35.8903  36.3439

          k = 0.8660-0.5000-0.3536 (  1494 PWs)   bands (ev):

   -90.9944 -88.6028 -51.3756 -51.3629 -51.3596 -49.0591 -49.0449 -49.0407
    -4.2387  -4.0710   4.8915   6.0168   6.3376   6.7687   7.7516   7.9819
     8.3450   9.0910   9.3645  10.5407  10.5421  10.5748  12.3264  12.4878
    17.3013  17.4553  19.9144  20.4255  24.6297  25.1967  26.3255  28.2659
    28.2681  31.0498  31.0519  35.4503

          k = 0.0000 0.0000 0.2652 (  1476 PWs)   bands (ev):

   -90.9959 -88.6046 -51.3658 -51.3541 -51.3541 -49.0483 -49.0344 -49.0344
    -5.3643  -4.3300   5.3944   5.9272   5.9272   7.4424   7.4424   7.5317
     8.6591   8.6591  10.3889  11.1757  11.5792  11.5792  12.6748  12.6748
    17.0710  17.0710  17.0717  19.7967  24.9133  28.8961  28.8961  29.2774
    32.4513  32.4513  34.1884  35.0682

          k = 1.2990 0.7500 0.0000 (  1471 PWs)   bands (ev):

   -90.9948 -88.6034 -51.3650 -51.3644 -51.3569 -49.0470 -49.0468 -49.0376
    -4.8021  -4.2459   5.4317   6.0939   6.6595   6.7670   7.5085   7.5376
     8.1500   8.8377   9.7765  10.7481  11.3692  11.7281  11.7795  11.9910
    16.4645  17.2203  20.1205  21.5900  25.2705  25.4430  27.3860  27.6606
    29.6399  30.8369  30.8479  35.8958

          k = 0.8660 0.5000 0.0884 (  1475 PWs)   bands (ev):

   -90.9943 -88.6026 -51.3756 -51.3630 -51.3596 -49.0592 -49.0452 -49.0407
    -4.3334  -3.9778   5.2138   6.0348   6.1323   6.7580   7.6263   7.9945
     8.1710   9.1533   9.4172  10.3375  10.6978  10.7795  12.1450  12.3321
    17.1631  17.2239  20.8510  21.0453  24.3770  25.0520  25.9672  27.1873
    28.7488  30.7320  31.5068  36.1729

          k = 1.2990-0.7500-0.2652 (  1471 PWs)   bands (ev):

   -90.9949 -88.6034 -51.3650 -51.3644 -51.3569 -49.0470 -49.0466 -49.0376
    -4.6331  -4.4318   5.6250   6.0886   6.4655   6.6436   7.5493   7.6714
     8.2138   8.8765   9.6932  10.4301  11.2373  11.4100  12.1103  12.5013
    16.7075  17.1426  19.9538  21.0314  25.5071  25.8220  26.6422  27.9745
    30.1097  30.4657  31.8011  35.2156

          k = 0.8660-1.0000-0.1768 (  1470 PWs)   bands (ev):

   -90.9940 -88.6026 -51.3717 -51.3639 -51.3629 -49.0546 -49.0455 -49.0451
    -4.2764  -4.0417   5.8806   5.9632   6.1343   6.2909   7.1454   8.1540
     8.3016   8.9459   9.9747  10.2910  10.5657  10.6881  12.0049  12.2522
    17.0369  17.0610  21.8567  22.0198  24.0920  24.2649  25.9645  26.0493
    29.7546  29.8863  33.3270  33.4056

          k = 0.0000 0.0000-0.5303 (  1490 PWs)   bands (ev):

   -90.9958 -88.6044 -51.3658 -51.3541 -51.3541 -49.0484 -49.0344 -49.0344
    -4.8885  -4.8767   5.9660   5.9660   6.2238   7.0128   7.4909   7.4909
     8.5319   8.5319  10.1618  10.6600  11.4121  11.4121  12.9492  12.9492
    16.9663  16.9663  18.7384  18.8638  26.4002  26.5349  30.4942  30.4942
    30.6231  30.6231  34.5411  34.6135

     highest occupied, lowest unoccupied level (ev):    12.9492   15.9900

!    total energy              =    -769.53825267 Ry
     Harris-Foulkes estimate   =    -769.53825263 Ry
     estimated scf accuracy    <          3.9E-10 Ry

     The total energy is the sum of the following terms:

     one-electron contribution =    -432.34739199 Ry
     hartree contribution      =     245.49056242 Ry
     xc contribution           =     -86.18724027 Ry
     ewald contribution        =    -477.64553572 Ry
     Hubbard energy            =       0.17852482 Ry
     one-center paw contrib.   =     -19.02717192 Ry

     total magnetization       =    -0.00 Bohr mag/cell
     absolute magnetization    =     3.67 Bohr mag/cell

     convergence has been achieved in  16 iterations

     Forces acting on atoms (cartesian axes, Ry/au):

     atom    1 type  1   force =    -0.00000000   -0.00000000   -0.00000000
     atom    2 type  2   force =     0.00000000    0.00000000    0.00000000
     atom    3 type  3   force =     0.00000000   -0.00000000    0.00000004
     atom    4 type  3   force =     0.00000000   -0.00000000   -0.00000004

     Total force =     0.000000     Total SCF correction =     0.000001
     SCF correction compared to forces is large: reduce conv_thr to get better values

     Writing output data file NiO.save/
 
     init_run     :      3.19s CPU      3.33s WALL (       1 calls)
     electrons    :    104.73s CPU    107.39s WALL (       1 calls)
     forces       :      1.29s CPU      1.33s WALL (       1 calls)

     Called by init_run:
     wfcinit      :      1.65s CPU      1.68s WALL (       1 calls)
     potinit      :      0.62s CPU      0.65s WALL (       1 calls)
     hinit0       :      0.73s CPU      0.76s WALL (       1 calls)

     Called by electrons:
     c_bands      :     72.52s CPU     73.22s WALL (      16 calls)
     sum_band     :     19.89s CPU     20.91s WALL (      16 calls)
     v_of_rho     :      6.06s CPU      6.19s WALL (      17 calls)
     newd         :      2.36s CPU      3.27s WALL (      17 calls)
     PAW_pot      :      3.24s CPU      3.24s WALL (      17 calls)
     mix_rho      :      0.76s CPU      0.76s WALL (      16 calls)

     Called by c_bands:
     init_us_2    :      0.62s CPU      0.62s WALL (     936 calls)
     cegterg      :     70.70s CPU     71.39s WALL (     416 calls)

     Called by sum_band:
     sum_band:bec :      0.01s CPU      0.02s WALL (     416 calls)
     addusdens    :      4.22s CPU      5.08s WALL (      16 calls)

     Called by *egterg:
     h_psi        :     63.44s CPU     64.12s WALL (    1271 calls)
     s_psi        :      0.87s CPU      0.88s WALL (    1323 calls)
     g_psi        :      0.20s CPU      0.20s WALL (     829 calls)
     cdiaghg      :      3.44s CPU      3.45s WALL (    1245 calls)

     Called by h_psi:
     h_psi:pot    :     62.67s CPU     63.35s WALL (    1271 calls)
     h_psi:calbec :      1.06s CPU      1.07s WALL (    1271 calls)
     vloc_psi     :     60.79s CPU     61.44s WALL (    1271 calls)
     add_vuspsi   :      0.82s CPU      0.83s WALL (    1271 calls)
     vhpsi        :      0.64s CPU      0.64s WALL (    1271 calls)

     General routines
     calbec       :      2.15s CPU      2.18s WALL (    4492 calls)
     fft          :      3.66s CPU      3.71s WALL (     438 calls)
     ffts         :      0.10s CPU      0.10s WALL (      66 calls)
     fftw         :     64.92s CPU     65.65s WALL (   87590 calls)
     interpolate  :      0.41s CPU      0.41s WALL (      34 calls)
     davcio       :      0.00s CPU      0.00s WALL (      26 calls)
 
     Parallel routines
     fft_scatt_xy :     10.75s CPU     10.85s WALL (   88094 calls)
     fft_scatt_yz :     15.53s CPU     15.73s WALL (   88094 calls)

     Hubbard U routines
     new_ns       :      0.15s CPU      0.16s WALL (      16 calls)
     vhpsi        :      0.64s CPU      0.64s WALL (    1271 calls)
     force_hub    :      0.29s CPU      0.30s WALL (       1 calls)
 
     PWSCF        :   1m49.69s CPU   1m52.58s WALL

 
   This run was terminated on:  21:19:30  19Jul2019            

=------------------------------------------------------------------------------=
   JOB DONE.
=------------------------------------------------------------------------------=
