
     Program PWSCF v.6.4.1 starts on 19Jul2019 at 21:23:39 

     This program is part of the open-source Quantum ESPRESSO suite
     for quantum simulation of materials; please cite
         "P. Giannozzi et al., J. Phys.:Condens. Matter 21 395502 (2009);
         "P. Giannozzi et al., J. Phys.:Condens. Matter 29 465901 (2017);
          URL http://www.quantum-espresso.org", 
     in publications or presentations arising from this work. More details at
     http://www.quantum-espresso.org/quote

     Parallel version (MPI), running on     2 processors

     MPI processes distributed on     1 nodes
     R & G space division:  proc/nbgrp/npool/nimage =       2
     Reading input from nio.2_nscf.in

     Current dimensions of program PWSCF are:
     Max number of different atomic species (ntypx) = 10
     Max number of k-points (npk) =  40000
     Max angular momentum in pseudopotentials (lmaxx) =  3

     Atomic positions and unit cell read from directory:
     ./outdir/NiO.save/
 
               file O.pbe-n-kjpaw_psl.0.1.UPF: wavefunction(s)  2P renormalized

     Subspace diagonalization in iterative solution of the eigenvalue problem:
     a serial algorithm will be used

 
     Parallelization info
     --------------------
     sticks:   dense  smooth     PW     G-vecs:    dense   smooth      PW
     Min        1027     412    143                23276     5930    1206
     Max        1028     413    144                23277     5931    1207
     Sum        2055     825    287                46553    11861    2413
 


     bravais-lattice index     =            5
     lattice parameter (alat)  =       9.6715  a.u.
     unit-cell volume          =     246.2189 (a.u.)^3
     number of atoms/cell      =            4
     number of atomic types    =            3
     number of electrons       =        48.00 (up:  24.00, down:  24.00)
     number of Kohn-Sham states=           36
     kinetic-energy cutoff     =      50.0000  Ry
     charge density cutoff     =     500.0000  Ry
     Exchange-correlation      = SLA PW PBX PBC ( 1  4  3  4 0 0)

     celldm(1)=   9.671550  celldm(2)=   0.000000  celldm(3)=   0.000000
     celldm(4)=   0.833333  celldm(5)=   0.000000  celldm(6)=   0.000000

     crystal axes: (cart. coord. in units of alat)
               a(1) = (   0.288675  -0.166667   0.942809 )  
               a(2) = (   0.000000   0.333333   0.942809 )  
               a(3) = (  -0.288675  -0.166667   0.942809 )  

     reciprocal axes: (cart. coord. in units 2 pi/alat)
               b(1) = (  1.732051 -1.000000  0.353553 )  
               b(2) = (  0.000000  2.000000  0.353553 )  
               b(3) = ( -1.732051 -1.000000  0.353553 )  


     PseudoPot. # 1 for Ni read from file:
     /home/anonymous/quantumEspresso_2019/SSSP_precision_pseudos/ni_pbe_v1.4.uspp.F.UPF
     MD5 check sum: 1ee80287db30b12d2bc1f57a5b5d6409
     Pseudo is Ultrasoft + core correction, Zval = 18.0
     Generated by new atomic code, or converted to UPF format
     Using radial grid of  865 points,  6 beta functions with: 
                l(1) =   0
                l(2) =   0
                l(3) =   1
                l(4) =   1
                l(5) =   2
                l(6) =   2
     Q(r) pseudized with 10 coefficients,  rinner =    0.980   0.980   0.980
                                                       0.980   0.980

     PseudoPot. # 2 for Ni read from file:
     /home/anonymous/quantumEspresso_2019/SSSP_precision_pseudos/ni_pbe_v1.4.uspp.F.UPF
     MD5 check sum: 1ee80287db30b12d2bc1f57a5b5d6409
     Pseudo is Ultrasoft + core correction, Zval = 18.0
     Generated by new atomic code, or converted to UPF format
     Using radial grid of  865 points,  6 beta functions with: 
                l(1) =   0
                l(2) =   0
                l(3) =   1
                l(4) =   1
                l(5) =   2
                l(6) =   2
     Q(r) pseudized with 10 coefficients,  rinner =    0.980   0.980   0.980
                                                       0.980   0.980

     PseudoPot. # 3 for O  read from file:
     /home/anonymous/quantumEspresso_2019/SSSP_precision_pseudos/O.pbe-n-kjpaw_psl.0.1.UPF
     MD5 check sum: 0234752ac141de4415c5fc33072bef88
     Pseudo is Projector augmented-wave + core cor, Zval =  6.0
     Generated using "atomic" code by A. Dal Corso v.5.0.99 svn rev. 10869
     Shape of augmentation charge: BESSEL
     Using radial grid of 1095 points,  4 beta functions with: 
                l(1) =   0
                l(2) =   0
                l(3) =   1
                l(4) =   1
     Q(r) pseudized with 0 coefficients 


     atomic species   valence    mass     pseudopotential
        Ni1           18.00    58.69340     Ni( 1.00)
        Ni2           18.00    58.69340     Ni( 1.00)
        O              6.00    15.99900     O ( 1.00)

     Starting magnetic structure 
     atomic species   magnetization
        Ni1          0.200
        Ni2         -0.200
        O            0.000


     Simplified LDA+U calculation (l_max = 2) with parameters (eV):
     atomic species    L          U    alpha       J0     beta
        Ni1            2     7.6000   0.0000   0.0000   0.0000
        Ni2            2     7.6000   0.0000   0.0000   0.0000



     12 Sym. Ops., with inversion, found



   Cartesian axes

     site n.     atom                  positions (alat units)
         1           Ni1 tau(   1) = (   0.0000000   0.0000000   0.0000000  )
         2           Ni2 tau(   2) = (   0.0000000   0.6666667   0.4714045  )
         3           O   tau(   3) = (   0.2886751  -0.1666667   0.2357023  )
         4           O   tau(   4) = (  -0.2886751   0.1666667  -0.2357023  )

     number of k points=   189 (tetrahedron method)

     Number of k-points >= 100: set verbosity='high' to print them.

     Dense  grid:    46553 G-vectors     FFT dimensions: (  72,  72,  72)

     Smooth grid:    11861 G-vectors     FFT dimensions: (  45,  45,  45)

     Estimated max dynamical RAM per process >      99.58 MB

     Estimated total dynamical RAM >     199.17 MB
     Generating pointlists ...
     new r_m :   0.1684 (alat units)  1.6287 (a.u.) for type    1
     new r_m :   0.1684 (alat units)  1.6287 (a.u.) for type    2
     new r_m :   0.1684 (alat units)  1.6287 (a.u.) for type    3

     Check: negative core charge=   -0.000006

     The potential is recalculated from file :
     ./outdir/NiO.save/charge-density

     Number of +U iterations with fixed ns =  0
     Starting occupations:
 --- enter write_ns ---
 LDA+U parameters:
U( 1)     =  7.60000000
alpha( 1) =  0.00000000
U( 2)     =  7.60000000
alpha( 2) =  0.00000000
atom    1   Tr[ns(na)] (up, down, total) =   4.98799  3.33554  8.32353
   spin  1
    eigenvalues: 
  0.997  0.997  0.997  0.998  0.998
    eigenvectors:
  1.000  0.000  0.000  0.000  0.000
  0.000  0.018  0.314  0.501  0.167
  0.000  0.314  0.018  0.167  0.501
  0.000  0.632  0.036  0.083  0.249
  0.000  0.036  0.632  0.249  0.083
    occupations:
  0.997  0.000  0.000  0.000  0.000
  0.000  0.998  0.000 -0.000  0.000
  0.000  0.000  0.998  0.000 -0.000
  0.000 -0.000  0.000  0.998 -0.000
  0.000  0.000 -0.000 -0.000  0.998
   spin  2
    eigenvalues: 
  0.176  0.176  0.994  0.994  0.994
    eigenvectors:
  0.000  0.000  1.000  0.000  0.000
  0.496  0.171  0.000  0.018  0.315
  0.171  0.496  0.000  0.315  0.018
  0.085  0.248  0.000  0.630  0.036
  0.248  0.085  0.000  0.036  0.630
    occupations:
  0.994 -0.000 -0.000  0.000  0.000
 -0.000  0.449  0.000 -0.000 -0.386
 -0.000  0.000  0.449 -0.386  0.000
  0.000 -0.000 -0.386  0.721 -0.000
  0.000 -0.386  0.000 -0.000  0.721
atomic mag. moment =     1.652451
atom    2   Tr[ns(na)] (up, down, total) =   3.33554  4.98799  8.32353
   spin  1
    eigenvalues: 
  0.176  0.176  0.994  0.994  0.994
    eigenvectors:
  0.000  0.000  1.000  0.000  0.000
  0.499  0.168  0.000  0.018  0.315
  0.168  0.499  0.000  0.315  0.018
  0.084  0.250  0.000  0.630  0.036
  0.250  0.084  0.000  0.036  0.630
    occupations:
  0.994 -0.000 -0.000  0.000  0.000
 -0.000  0.449  0.000 -0.000 -0.386
 -0.000  0.000  0.449 -0.386  0.000
  0.000 -0.000 -0.386  0.721 -0.000
  0.000 -0.386  0.000 -0.000  0.721
   spin  2
    eigenvalues: 
  0.997  0.997  0.997  0.998  0.998
    eigenvectors:
  1.000  0.000  0.000  0.000  0.000
  0.000  0.018  0.314  0.500  0.168
  0.000  0.314  0.018  0.168  0.500
  0.000  0.632  0.036  0.083  0.249
  0.000  0.036  0.632  0.249  0.083
    occupations:
  0.997  0.000  0.000  0.000  0.000
  0.000  0.998  0.000 -0.000  0.000
  0.000  0.000  0.998  0.000 -0.000
  0.000 -0.000  0.000  0.998 -0.000
  0.000  0.000 -0.000 -0.000  0.998
atomic mag. moment =    -1.652451
N of occupied +U levels =   16.647069
 --- exit write_ns ---
 Atomic wfc used for LDA+U Projector are NOT orthogonalized
     Starting wfcs are   34 randomized atomic wfcs +    2 random wfcs
     Checking if some PAW data can be deallocated... 

     Band Structure Calculation
     Davidson diagonalization with overlap

     ethr =  2.08E-09,  avg # of iterations = 10.5

     total cpu time spent up to now is      287.4 secs

     End of band structure calculation

     Number of k-points >= 100: set verbosity='high' to print the bands.

     the spin up/dw Fermi energies are    15.6910   15.6910 ev

     Writing output data file NiO.save/
 
     init_run     :      2.57s CPU      2.68s WALL (       1 calls)
     electrons    :    281.13s CPU    284.25s WALL (       1 calls)

     Called by init_run:
     wfcinit      :      0.98s CPU      1.02s WALL (       1 calls)
     potinit      :      0.59s CPU      0.62s WALL (       1 calls)
     hinit0       :      0.80s CPU      0.81s WALL (       1 calls)

     Called by electrons:
     c_bands      :    280.93s CPU    284.05s WALL (       1 calls)
     v_of_rho     :      0.38s CPU      0.39s WALL (       1 calls)
     newd         :      0.14s CPU      0.18s WALL (       1 calls)
     PAW_pot      :      0.17s CPU      0.17s WALL (       1 calls)

     Called by c_bands:
     init_us_2    :      0.48s CPU      0.53s WALL (     756 calls)
     cegterg      :    248.06s CPU    250.48s WALL (     378 calls)

     Called by sum_band:

     Called by *egterg:
     h_psi        :    220.70s CPU    223.45s WALL (    4713 calls)
     s_psi        :      3.21s CPU      3.25s WALL (    5091 calls)
     g_psi        :      0.93s CPU      0.93s WALL (    3957 calls)
     cdiaghg      :     30.19s CPU     30.30s WALL (    4335 calls)

     Called by h_psi:
     h_psi:pot    :    218.24s CPU    220.97s WALL (    4713 calls)
     h_psi:calbec :      3.65s CPU      3.67s WALL (    4713 calls)
     vloc_psi     :    211.61s CPU    214.30s WALL (    4713 calls)
     add_vuspsi   :      2.92s CPU      2.95s WALL (    4713 calls)
     vhpsi        :      2.16s CPU      2.18s WALL (    4713 calls)

     General routines
     calbec       :      4.93s CPU      4.98s WALL (    9804 calls)
     fft          :      0.19s CPU      0.20s WALL (      23 calls)
     ffts         :      0.00s CPU      0.00s WALL (       2 calls)
     fftw         :    189.74s CPU    192.24s WALL (  204968 calls)
     interpolate  :      0.02s CPU      0.02s WALL (       2 calls)
     davcio       :      0.26s CPU      0.34s WALL (    1512 calls)
 
     Parallel routines
     fft_scatt_xy :     26.17s CPU     26.47s WALL (  204993 calls)
     fft_scatt_yz :     42.32s CPU     42.91s WALL (  204993 calls)

     Hubbard U routines
     vhpsi        :      2.16s CPU      2.18s WALL (    4713 calls)
 
     PWSCF        :   4m44.86s CPU   4m48.69s WALL

 
   This run was terminated on:  21:28:28  19Jul2019            

=------------------------------------------------------------------------------=
   JOB DONE.
=------------------------------------------------------------------------------=
