
     Program PWSCF v.6.4.1 starts on 18Jul2019 at  0:56: 0 

     This program is part of the open-source Quantum ESPRESSO suite
     for quantum simulation of materials; please cite
         "P. Giannozzi et al., J. Phys.:Condens. Matter 21 395502 (2009);
         "P. Giannozzi et al., J. Phys.:Condens. Matter 29 465901 (2017);
          URL http://www.quantum-espresso.org", 
     in publications or presentations arising from this work. More details at
     http://www.quantum-espresso.org/quote

     Parallel version (MPI), running on     2 processors

     MPI processes distributed on     1 nodes
     R & G space division:  proc/nbgrp/npool/nimage =       2
     Reading input from benzene.1_scf.in

     Current dimensions of program PWSCF are:
     Max number of different atomic species (ntypx) = 10
     Max number of k-points (npk) =  40000
     Max angular momentum in pseudopotentials (lmaxx) =  3

     Subspace diagonalization in iterative solution of the eigenvalue problem:
     a serial algorithm will be used

 
     Parallelization info
     --------------------
     sticks:   dense  smooth     PW     G-vecs:    dense   smooth      PW
     Min        8952    8952   2242               450573   450573   56328
     Max        8953    8953   2243               450574   450574   56329
     Sum       17905   17905   4485               901147   901147  112657
 


     bravais-lattice index     =            8
     lattice parameter (alat)  =      25.0000  a.u.
     unit-cell volume          =    7812.5000 (a.u.)^3
     number of atoms/cell      =           12
     number of atomic types    =            2
     number of electrons       =        30.00
     number of Kohn-Sham states=           15
     kinetic-energy cutoff     =      90.0000  Ry
     charge density cutoff     =     360.0000  Ry
     convergence threshold     =      1.0E-10
     mixing beta               =       0.7000
     number of iterations used =            8  plain     mixing
     Exchange-correlation      =  SLA  PW   PBX  PBC ( 1  4  3  4 0 0)

     celldm(1)=  25.000000  celldm(2)=   1.000000  celldm(3)=   0.500000
     celldm(4)=   0.000000  celldm(5)=   0.000000  celldm(6)=   0.000000

     crystal axes: (cart. coord. in units of alat)
               a(1) = (   1.000000   0.000000   0.000000 )  
               a(2) = (   0.000000   1.000000   0.000000 )  
               a(3) = (   0.000000   0.000000   0.500000 )  

     reciprocal axes: (cart. coord. in units 2 pi/alat)
               b(1) = (  1.000000  0.000000  0.000000 )  
               b(2) = (  0.000000  1.000000  0.000000 )  
               b(3) = (  0.000000  0.000000  2.000000 )  


     PseudoPot. # 1 for H  read from file:
     /home/anonymous/quantumEspresso_2019/q-e-qe-6.4.1_3_Intel/GIPAW/pseudo/H.pbe-tm-gipaw.UPF
     MD5 check sum: 39a9a69d8410949353303b9fcad9eee2
     Pseudo is Norm-conserving, Zval =  1.0
     Generated by new atomic code, or converted to UPF format
     Using radial grid of  929 points,  0 beta functions with: 

     PseudoPot. # 2 for C  read from file:
     /home/anonymous/quantumEspresso_2019/q-e-qe-6.4.1_3_Intel/GIPAW/pseudo/C.pbe-tm-gipaw.UPF
     MD5 check sum: 6e4a9b9bc4429ee737bc22471ffa2923
     Pseudo is Norm-conserving, Zval =  4.0
     Generated by new atomic code, or converted to UPF format
     Using radial grid of 1073 points,  1 beta functions with: 
                l(1) =   0

     atomic species   valence    mass     pseudopotential
        H              1.00     1.00000     H ( 1.00)
        C              4.00    12.00000     C ( 1.00)

      8 Sym. Ops., with inversion, found



   Cartesian axes

     site n.     atom                  positions (alat units)
         1           C   tau(   1) = (   0.0000000   0.1052095   0.0000000  )
         2           C   tau(   2) = (   0.0911141   0.0526048   0.0000000  )
         3           C   tau(   3) = (   0.0911141  -0.0526048   0.0000000  )
         4           C   tau(   4) = (   0.0000000  -0.1052095   0.0000000  )
         5           C   tau(   5) = (  -0.0911141  -0.0526048   0.0000000  )
         6           C   tau(   6) = (  -0.0911141   0.0526048   0.0000000  )
         7           H   tau(   7) = (   0.0000000   0.1871300   0.0000000  )
         8           H   tau(   8) = (   0.1620593   0.0935650   0.0000000  )
         9           H   tau(   9) = (   0.1620593  -0.0935650   0.0000000  )
        10           H   tau(  10) = (   0.0000000  -0.1871300   0.0000000  )
        11           H   tau(  11) = (  -0.1620593  -0.0935650   0.0000000  )
        12           H   tau(  12) = (  -0.1620593   0.0935650   0.0000000  )

     number of k points=     1
                       cart. coord. in units 2pi/alat
        k(    1) = (   0.0000000   0.0000000   0.0000000), wk =   2.0000000

     Dense  grid:   901147 G-vectors     FFT dimensions: ( 160, 160,  75)

     Estimated max dynamical RAM per process >     389.35 MB

     Estimated total dynamical RAM >     778.70 MB

     Initial potential from superposition of free atoms

     starting charge   24.59975, renormalised to   30.00000

     negative rho (up, down):  2.639E-06 0.000E+00
     Starting wfcs are   30 randomized atomic wfcs

     total cpu time spent up to now is        4.3 secs

     Self-consistent Calculation

     iteration #  1     ecut=    90.00 Ry     beta= 0.70
     Davidson diagonalization with overlap
     ethr =  1.00E-04,  avg # of iterations =  6.0

     total cpu time spent up to now is       11.5 secs

     total energy              =     -68.90002872 Ry
     Harris-Foulkes estimate   =     -79.02504367 Ry
     estimated scf accuracy    <      13.35699778 Ry

     iteration #  2     ecut=    90.00 Ry     beta= 0.70
     Davidson diagonalization with overlap
     ethr =  1.00E-02,  avg # of iterations =  3.0

     total cpu time spent up to now is       17.2 secs

     total energy              =     -74.22459672 Ry
     Harris-Foulkes estimate   =     -78.77005604 Ry
     estimated scf accuracy    <       8.26128841 Ry

     iteration #  3     ecut=    90.00 Ry     beta= 0.70
     Davidson diagonalization with overlap
     ethr =  1.00E-02,  avg # of iterations =  2.0

     total cpu time spent up to now is       21.8 secs

     total energy              =     -75.30508459 Ry
     Harris-Foulkes estimate   =     -75.45190808 Ry
     estimated scf accuracy    <       0.23351881 Ry

     iteration #  4     ecut=    90.00 Ry     beta= 0.70
     Davidson diagonalization with overlap
     ethr =  7.78E-04,  avg # of iterations =  2.0

     total cpu time spent up to now is       26.3 secs

     total energy              =     -75.36554095 Ry
     Harris-Foulkes estimate   =     -75.37733844 Ry
     estimated scf accuracy    <       0.02026430 Ry

     iteration #  5     ecut=    90.00 Ry     beta= 0.70
     Davidson diagonalization with overlap
     ethr =  6.75E-05,  avg # of iterations =  2.0

     total cpu time spent up to now is       30.9 secs

     total energy              =     -75.37184445 Ry
     Harris-Foulkes estimate   =     -75.37286829 Ry
     estimated scf accuracy    <       0.00237693 Ry

     iteration #  6     ecut=    90.00 Ry     beta= 0.70
     Davidson diagonalization with overlap
     ethr =  7.92E-06,  avg # of iterations =  2.0

     total cpu time spent up to now is       36.0 secs

     total energy              =     -75.37204784 Ry
     Harris-Foulkes estimate   =     -75.37214790 Ry
     estimated scf accuracy    <       0.00017300 Ry

     iteration #  7     ecut=    90.00 Ry     beta= 0.70
     Davidson diagonalization with overlap
     ethr =  5.77E-07,  avg # of iterations =  2.0

     total cpu time spent up to now is       44.6 secs

     total energy              =     -75.37210308 Ry
     Harris-Foulkes estimate   =     -75.37210821 Ry
     estimated scf accuracy    <       0.00001026 Ry

     iteration #  8     ecut=    90.00 Ry     beta= 0.70
     Davidson diagonalization with overlap
     ethr =  3.42E-08,  avg # of iterations =  2.0

     total cpu time spent up to now is       52.8 secs

     total energy              =     -75.37210555 Ry
     Harris-Foulkes estimate   =     -75.37210552 Ry
     estimated scf accuracy    <       0.00000010 Ry

     iteration #  9     ecut=    90.00 Ry     beta= 0.70
     Davidson diagonalization with overlap
     ethr =  3.44E-10,  avg # of iterations =  2.0

     total cpu time spent up to now is       61.2 secs

     total energy              =     -75.37210557 Ry
     Harris-Foulkes estimate   =     -75.37210557 Ry
     estimated scf accuracy    <       0.00000001 Ry

     iteration # 10     ecut=    90.00 Ry     beta= 0.70
     Davidson diagonalization with overlap
     ethr =  4.41E-11,  avg # of iterations =  2.0

     total cpu time spent up to now is       69.4 secs

     total energy              =     -75.37210557 Ry
     Harris-Foulkes estimate   =     -75.37210557 Ry
     estimated scf accuracy    <          6.1E-10 Ry

     iteration # 11     ecut=    90.00 Ry     beta= 0.70
     Davidson diagonalization with overlap
     ethr =  2.04E-12,  avg # of iterations =  4.0

     total cpu time spent up to now is       77.5 secs

     End of self-consistent calculation

          k = 0.0000 0.0000 0.0000 (112657 PWs)   bands (ev):

   -20.4330 -17.6335 -17.6334 -14.0634 -14.0633 -12.2238 -10.4559 -10.2235
    -9.5411  -9.5411  -8.3797  -7.5446  -7.5445  -5.6385  -5.6385

     highest occupied level (ev):    -5.6385

!    total energy              =     -75.37210557 Ry
     Harris-Foulkes estimate   =     -75.37210557 Ry
     estimated scf accuracy    <          8.0E-11 Ry

     The total energy is the sum of the following terms:

     one-electron contribution =    -305.07734937 Ry
     hartree contribution      =     156.36105283 Ry
     xc contribution           =     -25.19698388 Ry
     ewald contribution        =      98.54117485 Ry

     convergence has been achieved in  11 iterations

     Forces acting on atoms (cartesian axes, Ry/au):

     atom    1 type  2   force =     0.00000000    0.01031740    0.00000000
     atom    2 type  2   force =     0.00886632    0.00515809    0.00000000
     atom    3 type  2   force =     0.00886632   -0.00515809    0.00000000
     atom    4 type  2   force =     0.00000000   -0.01031740    0.00000000
     atom    5 type  2   force =    -0.00886632   -0.00515809    0.00000000
     atom    6 type  2   force =    -0.00886632    0.00515809    0.00000000
     atom    7 type  1   force =     0.00000000    0.01100543    0.00000000
     atom    8 type  1   force =     0.00952511    0.00549855    0.00000000
     atom    9 type  1   force =     0.00952511   -0.00549855    0.00000000
     atom   10 type  1   force =     0.00000000   -0.01100543    0.00000000
     atom   11 type  1   force =    -0.00952511   -0.00549855    0.00000000
     atom   12 type  1   force =    -0.00952511    0.00549855    0.00000000

     Total force =     0.036876     Total SCF correction =     0.000015

     Writing output data file benzene.save/
 
     init_run     :      4.04s CPU      4.24s WALL (       1 calls)
     electrons    :     70.75s CPU     73.38s WALL (       1 calls)
     forces       :      2.01s CPU      2.04s WALL (       1 calls)

     Called by init_run:
     wfcinit      :      2.05s CPU      2.07s WALL (       1 calls)
     potinit      :      1.01s CPU      1.09s WALL (       1 calls)
     hinit0       :      0.35s CPU      0.41s WALL (       1 calls)

     Called by electrons:
     c_bands      :     44.41s CPU     46.42s WALL (      11 calls)
     sum_band     :     10.90s CPU     11.20s WALL (      11 calls)
     v_of_rho     :     12.59s CPU     12.72s WALL (      12 calls)
     mix_rho      :      3.39s CPU      3.57s WALL (      11 calls)

     Called by c_bands:
     init_us_2    :      0.24s CPU      0.25s WALL (      23 calls)
     cegterg      :     44.25s CPU     46.26s WALL (      11 calls)

     Called by sum_band:

     Called by *egterg:
     h_psi        :     41.75s CPU     43.51s WALL (      41 calls)
     g_psi        :      0.30s CPU      0.30s WALL (      29 calls)
     cdiaghg      :      0.03s CPU      0.03s WALL (      40 calls)

     Called by h_psi:
     h_psi:pot    :     41.52s CPU     43.25s WALL (      41 calls)
     h_psi:calbec :      0.27s CPU      0.28s WALL (      41 calls)
     vloc_psi     :     40.94s CPU     42.61s WALL (      41 calls)
     add_vuspsi   :      0.31s CPU      0.36s WALL (      41 calls)

     General routines
     calbec       :      0.31s CPU      0.32s WALL (      45 calls)
     fft          :      9.07s CPU      9.19s WALL (     121 calls)
     ffts         :      0.81s CPU      0.81s WALL (      11 calls)
     fftw         :     40.95s CPU     42.59s WALL (    1263 calls)
 
     Parallel routines
     fft_scatt_xy :      8.43s CPU      8.67s WALL (    1395 calls)
     fft_scatt_yz :     17.78s CPU     18.36s WALL (    1395 calls)
 
     PWSCF        :   1m16.92s CPU   1m19.91s WALL

 
   This run was terminated on:   0:57:20  18Jul2019            

=------------------------------------------------------------------------------=
   JOB DONE.
=------------------------------------------------------------------------------=
