 ANIMSTEPS  12
 CRYSTAL 
 PRIMVEC 
  5.2917720859  0.0000000000  0.0000000000
  0.0000000000  5.2917720859  0.0000000000
  0.0000000000  0.0000000000  5.2917720859
 PRIMCOORD   1
    4  1
 N    0.0000000000    0.0000000000    0.3933888670    0.0000000000    0.0000000000   -0.0000004585
 H    0.2427456640    0.9050061840    0.0000000000    0.0000062848    0.0000034794    0.0000000000
 H    0.6627438890   -0.6630170480    0.0000000000    0.0000098979    0.0000021967    0.0000000000
 H   -0.9050890340   -0.2424545210    0.0000000000   -0.0000033526    0.0000013578    0.0000000000
 PRIMCOORD   2
    4  1
 N    0.0000000000    0.0000000000    0.3267275791    0.0000000000    0.0000000000    0.0188798008
 H    0.2480030949    0.9246137571    0.0000000000   -0.0008184854   -0.0030422337    0.0000000000
 H    0.6769952454   -0.6772619313    0.0000000000   -0.0021570986    0.0021667513    0.0000000000
 H   -0.9246978578   -0.2476980083    0.0000000000    0.0030417792    0.0008223535    0.0000000000
 PRIMCOORD   3
    4  1
 N    0.0000000000    0.0000000000    0.2572952627    0.0000000000    0.0000000000    0.0293984356
 H    0.2522947601    0.9406405847    0.0000000000   -0.0011062620   -0.0040836569    0.0000000000
 H    0.6886071320   -0.6888782638    0.0000000000   -0.0028844518    0.0028944336    0.0000000000
 H   -0.9407256986   -0.2519842243    0.0000000000    0.0040830610    0.0011097142    0.0000000000
 PRIMCOORD   4
    4  1
 N    0.0000000000    0.0000000000    0.1851078162    0.0000000000    0.0000000000    0.0309204048
 H    0.2554629868    0.9524926736    0.0000000000   -0.0008387246   -0.0030228528    0.0000000000
 H    0.6971605204   -0.6974349252    0.0000000000   -0.0021223051    0.0021320385    0.0000000000
 H   -0.9525786504   -0.2551483778    0.0000000000    0.0030220448    0.0008425890    0.0000000000
 PRIMCOORD   5
    4  1
 N    0.0000000000    0.0000000000    0.1109335925    0.0000000000    0.0000000000    0.0231033050
 H    0.2575185374    0.9602042352    0.0000000000   -0.0003578652   -0.0011510490    0.0000000000
 H    0.7027000691   -0.7029765540    0.0000000000   -0.0007941107    0.0008033602    0.0000000000
 H   -0.9602908309   -0.2572012143    0.0000000000    0.0011499983    0.0003624644    0.0000000000
 PRIMCOORD   6
    4  1
 N    0.0000000000    0.0000000000    0.0359844511    0.0000000000    0.0000000000    0.0082967809
 H    0.2585382899    0.9640417934    0.0000000000   -0.0000601782    0.0000153460    0.0000000000
 H    0.7054460120   -0.7057234701    0.0000000000    0.0000289416   -0.0000200091    0.0000000000
 H   -0.9641287321   -0.2582195582    0.0000000000   -0.0000165077    0.0000652514    0.0000000000
 PRIMCOORD   7
    4  1
 N    0.0000000000    0.0000000000   -0.0359838593    0.0000000000    0.0000000000   -0.0082966583
 H    0.2585382867    0.9640417381    0.0000000000   -0.0000601488    0.0000154690    0.0000000000
 H    0.7054459594   -0.7057234504    0.0000000000    0.0000290334   -0.0000200917    0.0000000000
 H   -0.9641286810   -0.2582195807    0.0000000000   -0.0000166161    0.0000652328    0.0000000000
 PRIMCOORD   8
    4  1
 N    0.0000000000    0.0000000000   -0.1109337705    0.0000000000    0.0000000000   -0.0231033289
 H    0.2575185693    0.9602042126    0.0000000000   -0.0003578762   -0.0011510475    0.0000000000
 H    0.7027001179   -0.7029765075    0.0000000000   -0.0007941469    0.0008033674    0.0000000000
 H   -0.9602908431   -0.2572011865    0.0000000000    0.0011500399    0.0003624656    0.0000000000
 PRIMCOORD   9
    4  1
 N    0.0000000000    0.0000000000   -0.1851077227    0.0000000000    0.0000000000   -0.0309204044
 H    0.2554630071    0.9524926886    0.0000000000   -0.0008387305   -0.0030228579    0.0000000000
 H    0.6971605580   -0.6974348992    0.0000000000   -0.0021223073    0.0021320233    0.0000000000
 H   -0.9525786539   -0.2551483493    0.0000000000    0.0030220196    0.0008425739    0.0000000000
 PRIMCOORD  10
    4  1
 N    0.0000000000    0.0000000000   -0.2572952532    0.0000000000    0.0000000000   -0.0293984395
 H    0.2522947699    0.9406405871    0.0000000000   -0.0011062654   -0.0040836605    0.0000000000
 H    0.6886071344   -0.6888782587    0.0000000000   -0.0028844480    0.0028944281    0.0000000000
 H   -0.9407256927   -0.2519842253    0.0000000000    0.0040830498    0.0011097124    0.0000000000
 PRIMCOORD  11
    4  1
 N    0.0000000000    0.0000000000   -0.3267276613    0.0000000000    0.0000000000   -0.0188797632
 H    0.2480030935    0.9246137514    0.0000000000   -0.0008184914   -0.0030422562    0.0000000000
 H    0.6769952381   -0.6772619310    0.0000000000   -0.0021571138    0.0021667685    0.0000000000
 H   -0.9246978517   -0.2476980115    0.0000000000    0.0030418017    0.0008223610    0.0000000000
 PRIMCOORD  12
    4  1
 N    0.0000000000    0.0000000000   -0.3933888670    0.0000000000    0.0000000000    0.0000010615
 H    0.2427456640    0.9050061840    0.0000000000    0.0000062700    0.0000047239    0.0000000000
 H    0.6627438890   -0.6630170480    0.0000000000    0.0000094939    0.0000026854    0.0000000000
 H   -0.9050890340   -0.2424545210    0.0000000000   -0.0000045530    0.0000014247    0.0000000000
