
     Program PWSCF v.6.4.1 starts on 27Jun2019 at  1:16:53 

     This program is part of the open-source Quantum ESPRESSO suite
     for quantum simulation of materials; please cite
         "P. Giannozzi et al., J. Phys.:Condens. Matter 21 395502 (2009);
         "P. Giannozzi et al., J. Phys.:Condens. Matter 29 465901 (2017);
          URL http://www.quantum-espresso.org", 
     in publications or presentations arising from this work. More details at
     http://www.quantum-espresso.org/quote

     Parallel version (MPI), running on     2 processors

     MPI processes distributed on     1 nodes
     R & G space division:  proc/nbgrp/npool/nimage =       2
     Reading input from al.1_vc_relax.in

     Current dimensions of program PWSCF are:
     Max number of different atomic species (ntypx) = 10
     Max number of k-points (npk) =  40000
     Max angular momentum in pseudopotentials (lmaxx) =  3
               file Al.pbe-n-kjpaw_psl.1.0.0.UPF: wavefunction(s)  3S 3P renormalized

     Subspace diagonalization in iterative solution of the eigenvalue problem:
     a serial algorithm will be used

 
     Parallelization info
     --------------------
     sticks:   dense  smooth     PW     G-vecs:    dense   smooth      PW
     Min         324     156     54                 5423     1917     373
     Max         325     157     55                 5426     1922     376
     Sum         649     313    109                10849     3839     749
 


     bravais-lattice index     =            2
     lattice parameter (alat)  =       7.6520  a.u.
     unit-cell volume          =     112.0121 (a.u.)^3
     number of atoms/cell      =            1
     number of atomic types    =            1
     number of electrons       =         3.00
     number of Kohn-Sham states=            6
     kinetic-energy cutoff     =      40.0000  Ry
     charge density cutoff     =     320.0000  Ry
     convergence threshold     =      1.0E-08
     mixing beta               =       0.7000
     number of iterations used =            8  plain     mixing
     Exchange-correlation      = SLA PW PBX PBC ( 1  4  3  4 0 0)
     nstep                     =           50


     celldm(1)=   7.652000  celldm(2)=   0.000000  celldm(3)=   0.000000
     celldm(4)=   0.000000  celldm(5)=   0.000000  celldm(6)=   0.000000

     crystal axes: (cart. coord. in units of alat)
               a(1) = (  -0.500000   0.000000   0.500000 )  
               a(2) = (   0.000000   0.500000   0.500000 )  
               a(3) = (  -0.500000   0.500000   0.000000 )  

     reciprocal axes: (cart. coord. in units 2 pi/alat)
               b(1) = ( -1.000000 -1.000000  1.000000 )  
               b(2) = (  1.000000  1.000000  1.000000 )  
               b(3) = ( -1.000000  1.000000 -1.000000 )  


     PseudoPot. # 1 for Al read from file:
     /home/anonymous/quantumEspresso_2019/SSSP_precision_pseudos/Al.pbe-n-kjpaw_psl.1.0.0.UPF
     MD5 check sum: cfc449ca30b5f3223ec38ddd88ac046d
     Pseudo is Projector augmented-wave + core cor, Zval =  3.0
     Generated using "atomic" code by A. Dal Corso v.5.1
     Shape of augmentation charge: PSQ
     Using radial grid of 1135 points,  6 beta functions with: 
                l(1) =   0
                l(2) =   0
                l(3) =   1
                l(4) =   1
                l(5) =   2
                l(6) =   2
     Q(r) pseudized with 0 coefficients 


     atomic species   valence    mass     pseudopotential
        Al             3.00    26.98154     Al( 1.00)

     48 Sym. Ops., with inversion, found



   Cartesian axes

     site n.     atom                  positions (alat units)
         1           Al  tau(   1) = (   0.0000000   0.0000000   0.0000000  )

     number of k points=    47  gaussian smearing, width (Ry)=  0.0100
                       cart. coord. in units 2pi/alat
        k(    1) = (   0.0000000   0.0000000   0.0000000), wk =   0.0020000
        k(    2) = (  -0.1000000   0.1000000  -0.1000000), wk =   0.0160000
        k(    3) = (  -0.2000000   0.2000000  -0.2000000), wk =   0.0160000
        k(    4) = (  -0.3000000   0.3000000  -0.3000000), wk =   0.0160000
        k(    5) = (  -0.4000000   0.4000000  -0.4000000), wk =   0.0160000
        k(    6) = (   0.5000000  -0.5000000   0.5000000), wk =   0.0080000
        k(    7) = (   0.0000000   0.2000000   0.0000000), wk =   0.0120000
        k(    8) = (  -0.1000000   0.3000000  -0.1000000), wk =   0.0480000
        k(    9) = (  -0.2000000   0.4000000  -0.2000000), wk =   0.0480000
        k(   10) = (  -0.3000000   0.5000000  -0.3000000), wk =   0.0480000
        k(   11) = (   0.6000000  -0.4000000   0.6000000), wk =   0.0480000
        k(   12) = (   0.5000000  -0.3000000   0.5000000), wk =   0.0480000
        k(   13) = (   0.4000000  -0.2000000   0.4000000), wk =   0.0480000
        k(   14) = (   0.3000000  -0.1000000   0.3000000), wk =   0.0480000
        k(   15) = (   0.2000000   0.0000000   0.2000000), wk =   0.0240000
        k(   16) = (   0.0000000   0.4000000   0.0000000), wk =   0.0120000
        k(   17) = (  -0.1000000   0.5000000  -0.1000000), wk =   0.0480000
        k(   18) = (  -0.2000000   0.6000000  -0.2000000), wk =   0.0480000
        k(   19) = (   0.7000000  -0.3000000   0.7000000), wk =   0.0480000
        k(   20) = (   0.6000000  -0.2000000   0.6000000), wk =   0.0480000
        k(   21) = (   0.5000000  -0.1000000   0.5000000), wk =   0.0480000
        k(   22) = (   0.4000000   0.0000000   0.4000000), wk =   0.0240000
        k(   23) = (   0.0000000   0.6000000   0.0000000), wk =   0.0120000
        k(   24) = (  -0.1000000   0.7000000  -0.1000000), wk =   0.0480000
        k(   25) = (   0.8000000  -0.2000000   0.8000000), wk =   0.0480000
        k(   26) = (   0.7000000  -0.1000000   0.7000000), wk =   0.0480000
        k(   27) = (   0.6000000  -0.0000000   0.6000000), wk =   0.0240000
        k(   28) = (   0.0000000   0.8000000   0.0000000), wk =   0.0120000
        k(   29) = (   0.9000000  -0.1000000   0.9000000), wk =   0.0480000
        k(   30) = (   0.8000000   0.0000000   0.8000000), wk =   0.0240000
        k(   31) = (   0.0000000  -1.0000000   0.0000000), wk =   0.0060000
        k(   32) = (  -0.2000000   0.4000000   0.0000000), wk =   0.0480000
        k(   33) = (  -0.3000000   0.5000000  -0.1000000), wk =   0.0960000
        k(   34) = (   0.6000000  -0.4000000   0.8000000), wk =   0.0960000
        k(   35) = (   0.5000000  -0.3000000   0.7000000), wk =   0.0480000
        k(   36) = (  -0.2000000   0.6000000   0.0000000), wk =   0.0480000
        k(   37) = (   0.7000000  -0.3000000   0.9000000), wk =   0.0960000
        k(   38) = (   0.6000000  -0.2000000   0.8000000), wk =   0.0960000
        k(   39) = (   0.5000000  -0.1000000   0.7000000), wk =   0.0960000
        k(   40) = (   0.4000000   0.0000000   0.6000000), wk =   0.0480000
        k(   41) = (   0.8000000  -0.2000000   1.0000000), wk =   0.0480000
        k(   42) = (   0.7000000  -0.1000000   0.9000000), wk =   0.0960000
        k(   43) = (   0.6000000   0.0000000   0.8000000), wk =   0.0480000
        k(   44) = (  -0.2000000  -1.0000000   0.0000000), wk =   0.0240000
        k(   45) = (   0.6000000  -0.2000000   1.0000000), wk =   0.0480000
        k(   46) = (   0.5000000  -0.1000000   0.9000000), wk =   0.0480000
        k(   47) = (  -0.4000000  -1.0000000   0.0000000), wk =   0.0240000

     Dense  grid:    10849 G-vectors     FFT dimensions: (  32,  32,  32)

     Smooth grid:     3839 G-vectors     FFT dimensions: (  24,  24,  24)

     Estimated max dynamical RAM per process >      24.61 MB

     Estimated total dynamical RAM >      49.22 MB

     Initial potential from superposition of free atoms

     starting charge    2.99771, renormalised to    3.00000
     Starting wfcs are    4 randomized atomic wfcs +    2 random wfcs
     Checking if some PAW data can be deallocated... 

     total cpu time spent up to now is        1.8 secs

     Self-consistent Calculation

     iteration #  1     ecut=    40.00 Ry     beta= 0.70
     Davidson diagonalization with overlap
     ethr =  1.00E-02,  avg # of iterations =  4.7

     Threshold (ethr) on eigenvalues was too large:
     Diagonalizing with lowered threshold

     Davidson diagonalization with overlap
     ethr =  1.85E-04,  avg # of iterations =  1.8

     total cpu time spent up to now is        2.7 secs

     total energy              =     -39.50160030 Ry
     Harris-Foulkes estimate   =     -39.50281330 Ry
     estimated scf accuracy    <       0.00549207 Ry

     iteration #  2     ecut=    40.00 Ry     beta= 0.70
     Davidson diagonalization with overlap
     ethr =  1.83E-04,  avg # of iterations =  1.1

     total cpu time spent up to now is        3.2 secs

     total energy              =     -39.50156151 Ry
     Harris-Foulkes estimate   =     -39.50165136 Ry
     estimated scf accuracy    <       0.00039296 Ry

     iteration #  3     ecut=    40.00 Ry     beta= 0.70
     Davidson diagonalization with overlap
     ethr =  1.31E-05,  avg # of iterations =  1.8

     total cpu time spent up to now is        3.6 secs

     total energy              =     -39.50157012 Ry
     Harris-Foulkes estimate   =     -39.50157025 Ry
     estimated scf accuracy    <       0.00000049 Ry

     iteration #  4     ecut=    40.00 Ry     beta= 0.70
     Davidson diagonalization with overlap
     ethr =  1.64E-08,  avg # of iterations =  2.9

     total cpu time spent up to now is        4.1 secs

     total energy              =     -39.50157146 Ry
     Harris-Foulkes estimate   =     -39.50157148 Ry
     estimated scf accuracy    <       0.00000002 Ry

     iteration #  5     ecut=    40.00 Ry     beta= 0.70
     Davidson diagonalization with overlap
     ethr =  7.26E-10,  avg # of iterations =  1.2

     total cpu time spent up to now is        4.6 secs

     End of self-consistent calculation

          k = 0.0000 0.0000 0.0000 (   531 PWs)   bands (ev):

    -3.2534  20.4199  20.4199  21.8733  21.8733  21.8733

          k =-0.1000 0.1000-0.1000 (   495 PWs)   bands (ev):

    -2.9826  17.1427  19.6923  19.6923  22.5598  23.0022

          k =-0.2000 0.2000-0.2000 (   489 PWs)   bands (ev):

    -2.1734  13.1604  18.9359  18.9359  22.2818  23.4094

          k =-0.3000 0.3000-0.3000 (   483 PWs)   bands (ev):

    -0.8350   9.4774  18.5863  18.5863  21.6746  21.6746

          k =-0.4000 0.4000-0.4000 (   477 PWs)   bands (ev):

     1.0183   6.2015  18.6813  18.6813  20.2352  20.2353

          k = 0.5000-0.5000 0.5000 (   476 PWs)   bands (ev):

     3.2727   3.4710  19.1923  19.1923  19.2705  19.2705

          k = 0.0000 0.2000 0.0000 (   495 PWs)   bands (ev):

    -2.8924  18.2982  18.2982  18.6002  21.0849  23.7148

          k =-0.1000 0.3000-0.1000 (   495 PWs)   bands (ev):

    -2.2631  14.6254  17.3249  18.7311  21.1178  21.9344

          k =-0.2000 0.4000-0.2000 (   487 PWs)   bands (ev):

    -1.1017  10.8671  16.8026  18.4012  19.1188  23.9557

          k =-0.3000 0.5000-0.3000 (   481 PWs)   bands (ev):

     0.5790   7.4648  16.7371  17.4438  18.4095  22.9267

          k = 0.6000-0.4000 0.6000 (   477 PWs)   bands (ev):

     2.7581   4.4966  16.2500  17.1308  18.8495  21.7965

          k = 0.5000-0.3000 0.5000 (   475 PWs)   bands (ev):

     1.9789   5.4327  15.5279  17.9841  19.7634  21.1035

          k = 0.4000-0.2000 0.4000 (   484 PWs)   bands (ev):

    -0.0379   8.5479  15.2890  19.2854  20.8626  21.1305

          k = 0.3000-0.1000 0.3000 (   483 PWs)   bands (ev):

    -1.5472  12.0588  15.5509  20.8181  21.2207  22.8905

          k = 0.2000 0.0000 0.2000 (   493 PWs)   bands (ev):

    -2.5325  15.5490  16.6213  21.1233  22.1827  23.3872

          k = 0.0000 0.4000 0.0000 (   480 PWs)   bands (ev):

    -1.8152  16.1752  16.1752  16.2725  18.5572  19.5497

          k =-0.1000 0.5000-0.1000 (   481 PWs)   bands (ev):

    -0.8351  12.6612  15.4887  16.2182  16.9148  20.2774

          k =-0.2000 0.6000-0.2000 (   475 PWs)   bands (ev):

     0.6660   9.1974  14.3696  15.2643  16.9246  22.7869

          k = 0.7000-0.3000 0.7000 (   477 PWs)   bands (ev):

     2.6695   6.1081  12.9848  15.5014  17.2533  24.8002

          k = 0.6000-0.2000 0.6000 (   471 PWs)   bands (ev):

     3.4467   5.1668  12.0956  16.2009  18.0488  23.9792

          k = 0.5000-0.1000 0.5000 (   484 PWs)   bands (ev):

     1.2805   8.0661  11.7458  17.3619  19.3150  23.5786

          k = 0.4000 0.0000 0.4000 (   485 PWs)   bands (ev):

    -0.3916  10.9131  12.3814  18.9755  21.0010  23.2179

          k = 0.0000 0.6000 0.0000 (   480 PWs)   bands (ev):

    -0.0387  13.7114  14.5214  14.6427  14.6427  18.1237

          k =-0.1000 0.7000-0.1000 (   475 PWs)   bands (ev):

     1.2771  11.2821  11.7114  14.2609  15.5646  19.1086

          k = 0.8000-0.2000 0.8000 (   476 PWs)   bands (ev):

     3.0919   8.1769  10.1086  14.3415  15.9248  21.9504

          k = 0.7000-0.1000 0.7000 (   471 PWs)   bands (ev):

     5.2615   5.5145   9.0751  14.8845  16.6031  25.3212

          k = 0.6000-0.0000 0.6000 (   484 PWs)   bands (ev):

     3.1042   7.5855   9.0643  15.8913  17.7421  26.8659

          k = 0.0000 0.8000 0.0000 (   468 PWs)   bands (ev):

     2.4004   9.4025  13.4557  13.7229  13.7229  17.1774

          k = 0.9000-0.1000 0.9000 (   469 PWs)   bands (ev):

     3.9952   7.6763  10.6871  13.6475  14.8817  18.4925

          k = 0.8000 0.0000 0.8000 (   474 PWs)   bands (ev):

     5.5950   6.8994   7.9236  14.0342  15.5825  21.6603

          k = 0.0000-1.0000 0.0000 (   468 PWs)   bands (ev):

     4.9331   6.2440  13.0989  13.4166  13.4166  16.8489

          k =-0.2000 0.4000 0.0000 (   480 PWs)   bands (ev):

    -1.4580  13.2419  14.5236  18.8411  19.8022  21.5956

          k =-0.3000 0.5000-0.1000 (   480 PWs)   bands (ev):

    -0.1264  10.0699  13.6652  16.8685  20.1207  23.1582

          k = 0.6000-0.4000 0.8000 (   476 PWs)   bands (ev):

     1.7167   6.8614  13.6940  15.3513  20.3143  21.9885

          k = 0.5000-0.3000 0.7000 (   474 PWs)   bands (ev):

     3.9407   4.1724  14.0869  14.4668  20.7507  21.1190

          k =-0.2000 0.6000 0.0000 (   471 PWs)   bands (ev):

     0.3140  11.5813  12.8962  14.1119  18.2344  20.2872

          k = 0.7000-0.3000 0.9000 (   474 PWs)   bands (ev):

     1.9752   8.7282  12.1136  12.6149  18.9228  22.4816

          k = 0.6000-0.2000 0.8000 (   481 PWs)   bands (ev):

     4.1196   5.8458  11.0791  12.7837  19.4638  24.0335

          k = 0.5000-0.1000 0.7000 (   478 PWs)   bands (ev):

     3.3603   6.7193  10.4094  13.6558  20.3844  23.3337

          k = 0.4000 0.0000 0.6000 (   482 PWs)   bands (ev):

     1.3673   9.2487  10.7358  15.0292  21.6940  22.4761

          k = 0.8000-0.2000 1.0000 (   475 PWs)   bands (ev):

     2.7466   9.7191  10.5820  12.0279  17.2608  19.4150

          k = 0.7000-0.1000 0.9000 (   481 PWs)   bands (ev):

     4.6749   7.9718   8.4614  11.7576  18.2882  21.9388

          k = 0.6000 0.0000 0.8000 (   475 PWs)   bands (ev):

     5.4789   6.5894   8.0346  12.4410  19.1577  25.3056

          k =-0.2000-1.0000 0.0000 (   476 PWs)   bands (ev):

     5.2639   6.5918  10.2485  11.6878  16.9338  19.1126

          k = 0.6000-0.2000 1.0000 (   487 PWs)   bands (ev):

     3.7801   8.2507   9.6489  10.8851  21.5609  22.9135

          k = 0.5000-0.1000 0.9000 (   478 PWs)   bands (ev):

     5.9180   6.1486   9.4482  10.0826  22.5292  22.9763

          k =-0.4000-1.0000 0.0000 (   476 PWs)   bands (ev):

     6.2577   7.5818   7.9181   9.5170  21.2443  22.8111

     the Fermi energy is     7.9755 ev

!    total energy              =     -39.50157147 Ry
     Harris-Foulkes estimate   =     -39.50157147 Ry
     estimated scf accuracy    <          1.1E-10 Ry

     total all-electron energy =      -485.644353 Ry

     The total energy is the sum of the following terms:

     one-electron contribution =       3.15171322 Ry
     hartree contribution      =       0.00560254 Ry
     xc contribution           =      -2.58719162 Ry
     ewald contribution        =      -5.39254557 Ry
     one-center paw contrib.   =     -34.67854662 Ry
     smearing contrib. (-TS)   =      -0.00060342 Ry

     convergence has been achieved in   5 iterations

     Forces acting on atoms (cartesian axes, Ry/au):

     atom    1 type  1   force =     0.00000000    0.00000000    0.00000000

     Total force =     0.000000     Total SCF correction =     0.000000


     Computing stress (Cartesian axis) and pressure

          total   stress  (Ry/bohr**3)                   (kbar)     P=   -5.61
  -0.00003812   0.00000000   0.00000000         -5.61      0.00      0.00
   0.00000000  -0.00003812  -0.00000000          0.00     -5.61     -0.00
   0.00000000  -0.00000000  -0.00003812          0.00     -0.00     -5.61


     BFGS Geometry Optimization

     number of scf cycles    =   1
     number of bfgs steps    =   0

     enthalpy new            =     -39.5015714656 Ry

     new trust radius        =       0.0020172984 bohr
ibrav =      2
 celldm(1) =      7.64470740
Input lattice vectors:
    -0.49952348     0.00000000     0.49952348
    -0.00000000     0.49952348     0.49952348
    -0.49952348     0.49952348     0.00000000
New lattice vectors in INITIAL alat:
    -0.49952348     0.00000000     0.49952348
     0.00000000     0.49952348     0.49952348
    -0.49952348     0.49952348     0.00000000
New lattice vectors in NEW alat (for information only):
    -0.50000000     0.00000000     0.50000000
     0.00000000     0.50000000     0.50000000
    -0.50000000     0.50000000     0.00000000
Discrepancy in bohr =     0.000000    0.000000    0.000000
     new conv_thr            =       0.0000000100 Ry

     new unit-cell volume =    111.69214 a.u.^3 (    16.55107 Ang^3 )
     density =      2.70701 g/cm^3

CELL_PARAMETERS (alat=  7.65200000)
  -0.499523484   0.000000000   0.499523484
   0.000000000   0.499523484   0.499523484
  -0.499523484   0.499523484   0.000000000

ATOMIC_POSITIONS (alat)
Al       0.000000000   0.000000000   0.000000000



     Writing output data file al.save/
     NEW-OLD atomic charge density approx. for the potential
     extrapolated charge    2.99141, renormalised to    3.00000

     total cpu time spent up to now is        5.9 secs

     Self-consistent Calculation

     iteration #  1     ecut=    40.00 Ry     beta= 0.70
     Davidson diagonalization with overlap
     ethr =  1.00E-06,  avg # of iterations =  2.0

     Threshold (ethr) on eigenvalues was too large:
     Diagonalizing with lowered threshold

     Davidson diagonalization with overlap
     ethr =  1.69E-09,  avg # of iterations =  1.2

     total cpu time spent up to now is        6.7 secs

     total energy              =     -39.50158155 Ry
     Harris-Foulkes estimate   =     -39.49457195 Ry
     estimated scf accuracy    <       0.00000005 Ry

     iteration #  2     ecut=    40.00 Ry     beta= 0.70
     Davidson diagonalization with overlap
     ethr =  1.71E-09,  avg # of iterations =  1.8

     total cpu time spent up to now is        7.2 secs

     End of self-consistent calculation

          k = 0.0000 0.0000 0.0000 (   531 PWs)   bands (ev):

    -3.2436  20.4652  20.4652  21.9402  21.9403  21.9403

          k =-0.1001 0.1001-0.1001 (   495 PWs)   bands (ev):

    -2.9723  17.1875  19.7418  19.7418  22.6198  23.0664

          k =-0.2002 0.2002-0.2002 (   489 PWs)   bands (ev):

    -2.1616  13.1988  18.9862  18.9862  22.3393  23.4696

          k =-0.3003 0.3003-0.3003 (   483 PWs)   bands (ev):

    -0.8207   9.5098  18.6367  18.6367  21.7296  21.7296

          k =-0.4004 0.4004-0.4004 (   477 PWs)   bands (ev):

     1.0359   6.2284  18.7322  18.7322  20.2877  20.2877

          k = 0.5005-0.5005 0.5005 (   476 PWs)   bands (ev):

     3.2908   3.4967  19.2522  19.2522  19.3132  19.3132

          k = 0.0000 0.2002 0.0000 (   495 PWs)   bands (ev):

    -2.8820  18.3471  18.3471  18.6414  21.1507  23.7691

          k =-0.1001 0.3003-0.1001 (   495 PWs)   bands (ev):

    -2.2515  14.6659  17.3729  18.7782  21.1778  21.9890

          k =-0.2002 0.4004-0.2002 (   487 PWs)   bands (ev):

    -1.0879  10.9017  16.8501  18.4482  19.1713  24.0193

          k =-0.3003 0.5005-0.3003 (   481 PWs)   bands (ev):

     0.5958   7.4938  16.7846  17.4900  18.4606  22.9839

          k = 0.6006-0.4004 0.6006 (   477 PWs)   bands (ev):

     2.7784   4.5208  16.2952  17.1791  18.9004  21.8517

          k = 0.5005-0.3003 0.5005 (   475 PWs)   bands (ev):

     1.9981   5.4583  15.5723  18.0339  19.8157  21.1571

          k = 0.4004-0.2002 0.4004 (   484 PWs)   bands (ev):

    -0.0222   8.5786  15.3333  19.3385  20.9144  21.1848

          k = 0.3003-0.1001 0.3003 (   483 PWs)   bands (ev):

    -1.5343  12.0951  15.5960  20.8784  21.2677  22.9474

          k = 0.2002 0.0000 0.2002 (   493 PWs)   bands (ev):

    -2.5213  15.5895  16.6694  21.1700  22.2529  23.4491

          k = 0.0000 0.4004 0.0000 (   480 PWs)   bands (ev):

    -1.8028  16.2217  16.2217  16.3089  18.6054  19.6107

          k =-0.1001 0.5005-0.1001 (   481 PWs)   bands (ev):

    -0.8209  12.6980  15.5344  16.2608  16.9613  20.3362

          k =-0.2002 0.6006-0.2002 (   475 PWs)   bands (ev):

     0.6829   9.2289  14.4108  15.3097  16.9715  22.8474

          k = 0.7007-0.3003 0.7007 (   477 PWs)   bands (ev):

     2.6899   6.1348  13.0243  15.5473  17.3010  24.8603

          k = 0.6006-0.2002 0.6006 (   471 PWs)   bands (ev):

     3.4681   5.1921  12.1339  16.2479  18.0980  24.0376

          k = 0.5005-0.1001 0.5005 (   484 PWs)   bands (ev):

     1.2985   8.0955  11.7843  17.4109  19.3664  23.6353

          k = 0.4004 0.0000 0.4004 (   485 PWs)   bands (ev):

    -0.3766  10.9455  12.4229  19.0276  21.0552  23.2687

          k = 0.0000 0.6006 0.0000 (   480 PWs)   bands (ev):

    -0.0230  13.7509  14.5544  14.6872  14.6872  18.1827

          k =-0.1001 0.7007-0.1001 (   475 PWs)   bands (ev):

     1.2951  11.3148  11.7498  14.3049  15.6069  19.1658

          k = 0.8008-0.2002 0.8008 (   476 PWs)   bands (ev):

     3.1129   8.2062  10.1437  14.3857  15.9692  22.0096

          k = 0.7007-0.1001 0.7007 (   471 PWs)   bands (ev):

     5.2832   5.5425   9.1089  14.9295  16.6493  25.3850

          k = 0.6006 0.0000 0.6006 (   484 PWs)   bands (ev):

     3.1253   7.6123   9.1000  15.9379  17.7907  26.9336

          k = 0.0000 0.8008 0.0000 (   468 PWs)   bands (ev):

     2.4203   9.4352  13.4867  13.7662  13.7662  17.2344

          k = 0.9009-0.1001 0.9009 (   469 PWs)   bands (ev):

     4.0175   7.7063  10.7210  13.6908  14.9225  18.5486

          k = 0.8008 0.0000 0.8008 (   474 PWs)   bands (ev):

     5.6186   6.9274   7.9560  14.0780  15.6262  21.7190

          k = 0.0000-1.0010 0.0000 (   468 PWs)   bands (ev):

     4.9557   6.2731  13.1291  13.4595  13.4595  16.9051

          k =-0.2002 0.4004 0.0000 (   480 PWs)   bands (ev):

    -1.4449  13.2784  14.5684  18.8922  19.8496  21.6568

          k =-0.3003 0.5005-0.1001 (   480 PWs)   bands (ev):

    -0.1109  10.1027  13.7069  16.9161  20.1720  23.2192

          k = 0.6006-0.4004 0.8008 (   476 PWs)   bands (ev):

     1.7355   6.8893  13.7347  15.3969  20.3675  22.0441

          k = 0.5005-0.3003 0.7007 (   474 PWs)   bands (ev):

     3.9599   4.1992  14.1242  14.5149  20.8073  21.1705

          k =-0.2002 0.6006 0.0000 (   471 PWs)   bands (ev):

     0.3304  11.6147  12.9363  14.1561  18.2797  20.3472

          k = 0.7007-0.3003 0.9009 (   474 PWs)   bands (ev):

     1.9944   8.7585  12.1470  12.6610  18.9720  22.5424

          k = 0.6006-0.2002 0.8008 (   481 PWs)   bands (ev):

     4.1421   5.8721  11.1146  12.8259  19.5152  24.0931

          k = 0.5005-0.1001 0.7007 (   478 PWs)   bands (ev):

     3.3818   6.7465  10.4451  13.6986  20.4380  23.3906

          k = 0.4004 0.0000 0.6006 (   482 PWs)   bands (ev):

     1.3854   9.2783  10.7741  15.0740  21.7508  22.5287

          k = 0.8008-0.2002 1.0010 (   475 PWs)   bands (ev):

     2.7671   9.7515  10.6137  12.0712  17.3046  19.4736

          k = 0.7007-0.1001 0.9009 (   481 PWs)   bands (ev):

     4.6982   7.9983   8.4957  11.7981  18.3363  21.9986

          k = 0.6006 0.0000 0.8008 (   475 PWs)   bands (ev):

     5.5034   6.6146   8.0685  12.4819  19.2086  25.3699

          k =-0.2002-1.0010 0.0000 (   476 PWs)   bands (ev):

     5.2870   6.6213  10.2796  11.7299  16.9771  19.1706

          k = 0.6006-0.2002 1.0010 (   487 PWs)   bands (ev):

     3.8022   8.2786   9.6819  10.9263  21.6123  22.9772

          k = 0.5005-0.1001 0.9009 (   478 PWs)   bands (ev):

     5.9409   6.1769   9.4764  10.1261  22.5875  23.0310

          k =-0.4004-1.0010 0.0000 (   476 PWs)   bands (ev):

     6.2824   7.6106   7.9455   9.5584  21.2952  22.8747

     the Fermi energy is     8.0046 ev

!    total energy              =     -39.50158154 Ry
     Harris-Foulkes estimate   =     -39.50158156 Ry
     estimated scf accuracy    <          2.7E-09 Ry

     total all-electron energy =      -485.644363 Ry

     The total energy is the sum of the following terms:

     one-electron contribution =       3.15856230 Ry
     hartree contribution      =       0.00561883 Ry
     xc contribution           =      -2.58871310 Ry
     ewald contribution        =      -5.39768974 Ry
     one-center paw contrib.   =     -34.67876013 Ry
     smearing contrib. (-TS)   =      -0.00059970 Ry

     convergence has been achieved in   2 iterations

     Forces acting on atoms (cartesian axes, Ry/au):

     atom    1 type  1   force =     0.00000000    0.00000000    0.00000000

     Total force =     0.000000     Total SCF correction =     0.000000


     Computing stress (Cartesian axis) and pressure

          total   stress  (Ry/bohr**3)                   (kbar)     P=   -3.64
  -0.00002475   0.00000000   0.00000000         -3.64      0.00      0.00
   0.00000000  -0.00002475   0.00000000          0.00     -3.64      0.00
   0.00000000   0.00000000  -0.00002475          0.00      0.00     -3.64


     number of scf cycles    =   2
     number of bfgs steps    =   1

     enthalpy old            =     -39.5015714656 Ry
     enthalpy new            =     -39.5015815438 Ry

     CASE: enthalpy_new < enthalpy_old

     new trust radius        =       0.0030245053 bohr
ibrav =      2
 celldm(1) =      7.63376849
Input lattice vectors:
    -0.49880871    -0.00000000     0.49880871
     0.00000000     0.49880871     0.49880871
    -0.49880871     0.49880871    -0.00000000
New lattice vectors in INITIAL alat:
    -0.49880871     0.00000000     0.49880871
     0.00000000     0.49880871     0.49880871
    -0.49880871     0.49880871     0.00000000
New lattice vectors in NEW alat (for information only):
    -0.50000000     0.00000000     0.50000000
     0.00000000     0.50000000     0.50000000
    -0.50000000     0.50000000     0.00000000
Discrepancy in bohr =     0.000000    0.000000    0.000000
     new conv_thr            =            1.0E-10 Ry

     new unit-cell volume =    111.21336 a.u.^3 (    16.48012 Ang^3 )
     density =      2.71866 g/cm^3

CELL_PARAMETERS (alat=  7.65200000)
  -0.498808709   0.000000000   0.498808709
   0.000000000   0.498808709   0.498808709
  -0.498808709   0.498808709   0.000000000

ATOMIC_POSITIONS (alat)
Al       0.000000000   0.000000000   0.000000000



     Writing output data file al.save/
     NEW-OLD atomic charge density approx. for the potential
     extrapolated charge    2.98709, renormalised to    3.00000

     total cpu time spent up to now is        8.5 secs

     Self-consistent Calculation

     iteration #  1     ecut=    40.00 Ry     beta= 0.70
     Davidson diagonalization with overlap
     ethr =  1.00E-06,  avg # of iterations =  2.1

     Threshold (ethr) on eigenvalues was too large:
     Diagonalizing with lowered threshold

     Davidson diagonalization with overlap
     ethr =  4.08E-09,  avg # of iterations =  1.4

     total cpu time spent up to now is        9.3 secs

     total energy              =     -39.50158845 Ry
     Harris-Foulkes estimate   =     -39.49104229 Ry
     estimated scf accuracy    <       0.00000012 Ry

     iteration #  2     ecut=    40.00 Ry     beta= 0.70
     Davidson diagonalization with overlap
     ethr =  4.14E-09,  avg # of iterations =  1.8

     total cpu time spent up to now is        9.8 secs

     total energy              =     -39.50158845 Ry
     Harris-Foulkes estimate   =     -39.50158847 Ry
     estimated scf accuracy    <          6.8E-09 Ry

     iteration #  3     ecut=    40.00 Ry     beta= 0.70
     Davidson diagonalization with overlap
     ethr =  2.26E-10,  avg # of iterations =  1.3

     total cpu time spent up to now is       10.2 secs

     total energy              =     -39.50158845 Ry
     Harris-Foulkes estimate   =     -39.50158845 Ry
     estimated scf accuracy    <          2.4E-10 Ry

     iteration #  4     ecut=    40.00 Ry     beta= 0.70
     Davidson diagonalization with overlap
     ethr =  8.10E-12,  avg # of iterations =  1.5

     total cpu time spent up to now is       10.7 secs

     End of self-consistent calculation

          k = 0.0000 0.0000 0.0000 (   531 PWs)   bands (ev):

    -3.2291  20.5333  20.5333  20.5333  22.0408  22.0408

          k =-0.1002 0.1002-0.1002 (   495 PWs)   bands (ev):

    -2.9570  17.2547  19.8162  19.8162  22.7098  23.1629

          k =-0.2005 0.2005-0.2005 (   489 PWs)   bands (ev):

    -2.1440  13.2565  19.0616  19.0616  22.4255  23.5601

          k =-0.3007 0.3007-0.3007 (   483 PWs)   bands (ev):

    -0.7994   9.5584  18.7123  18.7123  21.8123  21.8123

          k =-0.4010 0.4010-0.4010 (   477 PWs)   bands (ev):

     1.0621   6.2687  18.8085  18.8085  20.3665  20.3665

          k = 0.5012-0.5012 0.5012 (   476 PWs)   bands (ev):

     3.3179   3.5352  19.3422  19.3422  19.3773  19.3773

          k = 0.0000 0.2005 0.0000 (   495 PWs)   bands (ev):

    -2.8664  18.4205  18.4205  18.7033  21.2493  23.8509

          k =-0.1002 0.3007-0.1002 (   495 PWs)   bands (ev):

    -2.2341  14.7266  17.4450  18.8488  21.2674  22.0713

          k =-0.2005 0.4010-0.2005 (   487 PWs)   bands (ev):

    -1.0673  10.9535  16.9214  18.5185  19.2503  24.1149

          k =-0.3007 0.5012-0.3007 (   481 PWs)   bands (ev):

     0.6209   7.5372  16.8560  17.5590  18.5374  23.0698

          k = 0.6014-0.4010 0.6014 (   477 PWs)   bands (ev):

     2.8088   4.5572  16.3630  17.2515  18.9770  21.9346

          k = 0.5012-0.3007 0.5012 (   475 PWs)   bands (ev):

     2.0268   5.4968  15.6389  18.1087  19.8942  21.2378

          k = 0.4010-0.2005 0.4010 (   484 PWs)   bands (ev):

     0.0013   8.6247  15.3998  19.4179  20.9923  21.2664

          k = 0.3007-0.1002 0.3007 (   483 PWs)   bands (ev):

    -1.5149  12.1494  15.6636  20.9687  21.3385  23.0331

          k = 0.2005 0.0000 0.2005 (   493 PWs)   bands (ev):

    -2.5048  15.6504  16.7416  21.2402  22.3582  23.5422

          k = 0.0000 0.4010 0.0000 (   480 PWs)   bands (ev):

    -1.7842  16.2915  16.2915  16.3638  18.6774  19.7025

          k =-0.1002 0.5012-0.1002 (   481 PWs)   bands (ev):

    -0.7996  12.7533  15.6029  16.3244  17.0313  20.4246

          k =-0.2005 0.6014-0.2005 (   475 PWs)   bands (ev):

     0.7083   9.2763  14.4726  15.3779  17.0421  22.9384

          k = 0.7017-0.3007 0.7017 (   477 PWs)   bands (ev):

     2.7203   6.1748  13.0834  15.6161  17.3728  24.9506

          k = 0.6014-0.2005 0.6014 (   471 PWs)   bands (ev):

     3.5002   5.2301  12.1915  16.3184  18.1719  24.1253

          k = 0.5012-0.1002 0.5012 (   484 PWs)   bands (ev):

     1.3255   8.1396  11.8420  17.4844  19.4436  23.7204

          k = 0.4010 0.0000 0.4010 (   485 PWs)   bands (ev):

    -0.3541  10.9941  12.4851  19.1058  21.1366  23.3452

          k = 0.0000 0.6014 0.0000 (   480 PWs)   bands (ev):

     0.0004  13.8102  14.6040  14.7540  14.7540  18.2714

          k =-0.1002 0.7017-0.1002 (   475 PWs)   bands (ev):

     1.3220  11.3638  11.8074  14.3710  15.6703  19.2516

          k = 0.8019-0.2005 0.8019 (   476 PWs)   bands (ev):

     3.1444   8.2501  10.1964  14.4520  16.0360  22.0985

          k = 0.7017-0.1002 0.7017 (   471 PWs)   bands (ev):

     5.3157   5.5844   9.1596  14.9971  16.7187  25.4810

          k = 0.6014 0.0000 0.6014 (   484 PWs)   bands (ev):

     3.1568   7.6526   9.1534  16.0078  17.8635  26.7804

          k = 0.0000 0.8019 0.0000 (   468 PWs)   bands (ev):

     2.4501   9.4841  13.5331  13.8312  13.8312  17.3200

          k = 0.9021-0.1002 0.9021 (   469 PWs)   bands (ev):

     4.0509   7.7511  10.7719  13.7556  14.9839  18.6327

          k = 0.8019 0.0000 0.8019 (   474 PWs)   bands (ev):

     5.6540   6.9692   8.0046  14.1437  15.6918  21.8072

          k = 0.0000-1.0024 0.0000 (   468 PWs)   bands (ev):

     4.9895   6.3166  13.1745  13.5239  13.5239  16.9896

          k =-0.2005 0.4010 0.0000 (   480 PWs)   bands (ev):

    -1.4253  13.3330  14.6357  18.9689  19.9208  21.7488

          k =-0.3007 0.5012-0.1002 (   480 PWs)   bands (ev):

    -0.0876  10.1518  13.7694  16.9875  20.2489  23.3109

          k = 0.6014-0.4010 0.8019 (   476 PWs)   bands (ev):

     1.7636   6.9310  13.7957  15.4654  20.4474  22.1276

          k = 0.5012-0.3007 0.7017 (   474 PWs)   bands (ev):

     3.9888   4.2392  14.1801  14.5872  20.8924  21.2480

          k =-0.2005 0.6014 0.0000 (   471 PWs)   bands (ev):

     0.3548  11.6649  12.9964  14.2226  18.3477  20.4374

          k = 0.7017-0.3007 0.9021 (   474 PWs)   bands (ev):

     2.0231   8.8040  12.1971  12.7301  19.0459  22.6337

          k = 0.6014-0.2005 0.8019 (   481 PWs)   bands (ev):

     4.1757   5.9115  11.1679  12.8893  19.5925  24.1828

          k = 0.5012-0.1002 0.7017 (   478 PWs)   bands (ev):

     3.4139   6.7872  10.4986  13.7629  20.5186  23.4759

          k = 0.4010 0.0000 0.6014 (   482 PWs)   bands (ev):

     1.4126   9.3227  10.8315  15.1412  21.8361  22.6078

          k = 0.8019-0.2005 1.0024 (   475 PWs)   bands (ev):

     2.7977   9.8000  10.6612  12.1362  17.3704  19.5615

          k = 0.7017-0.1002 0.9021 (   481 PWs)   bands (ev):

     4.7332   8.0381   8.5473  11.8588  18.4085  22.0884

          k = 0.6014 0.0000 0.8019 (   475 PWs)   bands (ev):

     5.5400   6.6524   8.1192  12.5433  19.2850  25.4665

          k =-0.2005-1.0024 0.0000 (   476 PWs)   bands (ev):

     5.3216   6.6653  10.3263  11.7932  17.0422  19.2576

          k = 0.6014-0.2005 1.0024 (   487 PWs)   bands (ev):

     3.8354   8.3204   9.7314  10.9883  21.6896  23.0732

          k = 0.5012-0.1002 0.9021 (   478 PWs)   bands (ev):

     5.9752   6.2193   9.5186  10.1912  22.6751  23.1133

          k =-0.4010-1.0024 0.0000 (   476 PWs)   bands (ev):

     6.3194   7.6535   7.9865   9.6206  21.3718  22.9701

     the Fermi energy is     8.0480 ev

!    total energy              =     -39.50158845 Ry
     Harris-Foulkes estimate   =     -39.50158845 Ry
     estimated scf accuracy    <          5.6E-13 Ry

     total all-electron energy =      -485.644370 Ry

     The total energy is the sum of the following terms:

     one-electron contribution =       3.16889084 Ry
     hartree contribution      =       0.00564443 Ry
     xc contribution           =      -2.59100761 Ry
     ewald contribution        =      -5.40542443 Ry
     one-center paw contrib.   =     -34.67909828 Ry
     smearing contrib. (-TS)   =      -0.00059339 Ry

     convergence has been achieved in   4 iterations

     Forces acting on atoms (cartesian axes, Ry/au):

     atom    1 type  1   force =     0.00000000    0.00000000    0.00000000

     Total force =     0.000000     Total SCF correction =     0.000000


     Computing stress (Cartesian axis) and pressure

          total   stress  (Ry/bohr**3)                   (kbar)     P=   -0.59
  -0.00000400  -0.00000000  -0.00000000         -0.59     -0.00     -0.00
  -0.00000000  -0.00000400   0.00000000         -0.00     -0.59      0.00
  -0.00000000   0.00000000  -0.00000400         -0.00      0.00     -0.59


     number of scf cycles    =   3
     number of bfgs steps    =   2

     enthalpy old            =     -39.5015815438 Ry
     enthalpy new            =     -39.5015884466 Ry

     CASE: enthalpy_new < enthalpy_old

     new trust radius        =       0.0005813519 bohr
ibrav =      2
 celldm(1) =      7.63166437
Input lattice vectors:
    -0.49867122     0.00000000     0.49867122
    -0.00000000     0.49867122     0.49867122
    -0.49867122     0.49867122     0.00000000
New lattice vectors in INITIAL alat:
    -0.49867122     0.00000000     0.49867122
     0.00000000     0.49867122     0.49867122
    -0.49867122     0.49867122     0.00000000
New lattice vectors in NEW alat (for information only):
    -0.50000000     0.00000000     0.50000000
     0.00000000     0.50000000     0.50000000
    -0.50000000     0.50000000     0.00000000
Discrepancy in bohr =     0.000000    0.000000    0.000000
     new conv_thr            =            1.0E-10 Ry

     new unit-cell volume =    111.12142 a.u.^3 (    16.46650 Ang^3 )
     density =      2.72091 g/cm^3

CELL_PARAMETERS (alat=  7.65200000)
  -0.498671221   0.000000000   0.498671221
   0.000000000   0.498671221   0.498671221
  -0.498671221   0.498671221   0.000000000

ATOMIC_POSITIONS (alat)
Al       0.000000000   0.000000000   0.000000000



     Writing output data file al.save/
     NEW-OLD atomic charge density approx. for the potential
     extrapolated charge    2.99752, renormalised to    3.00000

     total cpu time spent up to now is       12.0 secs

     Self-consistent Calculation

     iteration #  1     ecut=    40.00 Ry     beta= 0.70
     Davidson diagonalization with overlap
     ethr =  1.00E-06,  avg # of iterations =  2.0

     Threshold (ethr) on eigenvalues was too large:
     Diagonalizing with lowered threshold

     Davidson diagonalization with overlap
     ethr =  1.45E-10,  avg # of iterations =  1.4

     total cpu time spent up to now is       12.8 secs

     total energy              =     -39.50158863 Ry
     Harris-Foulkes estimate   =     -39.49956001 Ry
     estimated scf accuracy    <          4.4E-09 Ry

     iteration #  2     ecut=    40.00 Ry     beta= 0.70
     Davidson diagonalization with overlap
     ethr =  1.47E-10,  avg # of iterations =  1.8

     total cpu time spent up to now is       13.3 secs

     total energy              =     -39.50158863 Ry
     Harris-Foulkes estimate   =     -39.50158863 Ry
     estimated scf accuracy    <          2.4E-10 Ry

     iteration #  3     ecut=    40.00 Ry     beta= 0.70
     Davidson diagonalization with overlap
     ethr =  8.13E-12,  avg # of iterations =  1.2

     total cpu time spent up to now is       13.7 secs

     End of self-consistent calculation

          k = 0.0000 0.0000 0.0000 (   531 PWs)   bands (ev):

    -3.2263  20.5465  20.5465  20.5465  22.0602  22.0602

          k =-0.1003 0.1003-0.1003 (   495 PWs)   bands (ev):

    -2.9540  17.2677  19.8305  19.8305  22.7272  23.1816

          k =-0.2005 0.2005-0.2005 (   489 PWs)   bands (ev):

    -2.1406  13.2677  19.0762  19.0762  22.4422  23.5776

          k =-0.3008 0.3008-0.3008 (   483 PWs)   bands (ev):

    -0.7953   9.5677  18.7269  18.7269  21.8283  21.8283

          k =-0.4011 0.4011-0.4011 (   477 PWs)   bands (ev):

     1.0672   6.2765  18.8232  18.8232  20.3818  20.3818

          k = 0.5013-0.5013 0.5013 (   476 PWs)   bands (ev):

     3.3231   3.5426  19.3596  19.3596  19.3897  19.3897

          k = 0.0000 0.2005 0.0000 (   495 PWs)   bands (ev):

    -2.8634  18.4347  18.4347  18.7153  21.2683  23.8667

          k =-0.1003 0.3008-0.1003 (   495 PWs)   bands (ev):

    -2.2307  14.7384  17.4589  18.8624  21.2847  22.0872

          k =-0.2005 0.4011-0.2005 (   487 PWs)   bands (ev):

    -1.0633  10.9635  16.9352  18.5321  19.2656  24.1334

          k =-0.3008 0.5013-0.3008 (   481 PWs)   bands (ev):

     0.6257   7.5456  16.8698  17.5723  18.5523  23.0864

          k = 0.6016-0.4011 0.6016 (   477 PWs)   bands (ev):

     2.8147   4.5642  16.3761  17.2655  18.9918  21.9507

          k = 0.5013-0.3008 0.5013 (   475 PWs)   bands (ev):

     2.0324   5.5042  15.6518  18.1232  19.9094  21.2533

          k = 0.4011-0.2005 0.4011 (   484 PWs)   bands (ev):

     0.0059   8.6336  15.4126  19.4332  21.0073  21.2822

          k = 0.3008-0.1003 0.3008 (   483 PWs)   bands (ev):

    -1.5112  12.1599  15.6767  20.9861  21.3522  23.0496

          k = 0.2005 0.0000 0.2005 (   493 PWs)   bands (ev):

    -2.5015  15.6621  16.7555  21.2538  22.3786  23.5601

          k = 0.0000 0.4011 0.0000 (   480 PWs)   bands (ev):

    -1.7806  16.3050  16.3050  16.3743  18.6913  19.7203

          k =-0.1003 0.5013-0.1003 (   481 PWs)   bands (ev):

    -0.7954  12.7640  15.6161  16.3367  17.0448  20.4417

          k =-0.2005 0.6016-0.2005 (   475 PWs)   bands (ev):

     0.7132   9.2854  14.4846  15.3910  17.0557  22.9559

          k = 0.7019-0.3008 0.7019 (   477 PWs)   bands (ev):

     2.7262   6.1826  13.0949  15.6294  17.3866  24.9680

          k = 0.6016-0.2005 0.6016 (   471 PWs)   bands (ev):

     3.5064   5.2374  12.2026  16.3320  18.1862  24.1423

          k = 0.5013-0.1003 0.5013 (   484 PWs)   bands (ev):

     1.3307   8.1481  11.8531  17.4986  19.4585  23.7368

          k = 0.4011 0.0000 0.4011 (   485 PWs)   bands (ev):

    -0.3497  11.0035  12.4971  19.1209  21.1523  23.3600

          k = 0.0000 0.6016 0.0000 (   480 PWs)   bands (ev):

     0.0049  13.8216  14.6135  14.7669  14.7669  18.2885

          k =-0.1003 0.7019-0.1003 (   475 PWs)   bands (ev):

     1.3273  11.3733  11.8185  14.3838  15.6826  19.2682

          k = 0.8021-0.2005 0.8021 (   476 PWs)   bands (ev):

     3.1505   8.2586  10.2066  14.4648  16.0489  22.1157

          k = 0.7019-0.1003 0.7019 (   471 PWs)   bands (ev):

     5.3220   5.5925   9.1694  15.0101  16.7321  25.4995

          k = 0.6016 0.0000 0.6016 (   484 PWs)   bands (ev):

     3.1629   7.6604   9.1637  16.0213  17.8776  26.7972

          k = 0.0000 0.8021 0.0000 (   468 PWs)   bands (ev):

     2.4559   9.4935  13.5421  13.8437  13.8437  17.3366

          k = 0.9024-0.1003 0.9024 (   469 PWs)   bands (ev):

     4.0573   7.7598  10.7817  13.7681  14.9958  18.6490

          k = 0.8021 0.0000 0.8021 (   474 PWs)   bands (ev):

     5.6609   6.9773   8.0140  14.1564  15.7045  21.8242

          k = 0.0000-1.0027 0.0000 (   468 PWs)   bands (ev):

     4.9961   6.3250  13.1832  13.5363  13.5363  17.0059

          k =-0.2005 0.4011 0.0000 (   480 PWs)   bands (ev):

    -1.4215  13.3436  14.6487  18.9837  19.9346  21.7666

          k =-0.3008 0.5013-0.1003 (   480 PWs)   bands (ev):

    -0.0831  10.1613  13.7815  17.0013  20.2638  23.3286

          k = 0.6016-0.4011 0.8021 (   476 PWs)   bands (ev):

     1.7690   6.9391  13.8075  15.4787  20.4629  22.1437

          k = 0.5013-0.3008 0.7019 (   474 PWs)   bands (ev):

     3.9943   4.2470  14.1909  14.6012  20.9088  21.2630

          k =-0.2005 0.6016 0.0000 (   471 PWs)   bands (ev):

     0.3595  11.6746  13.0080  14.2354  18.3609  20.4548

          k = 0.7019-0.3008 0.9024 (   474 PWs)   bands (ev):

     2.0287   8.8128  12.2067  12.7434  19.0602  22.6513

          k = 0.6016-0.2005 0.8021 (   481 PWs)   bands (ev):

     4.1822   5.9192  11.1782  12.9016  19.6075  24.2001

          k = 0.5013-0.1003 0.7019 (   478 PWs)   bands (ev):

     3.4201   6.7951  10.5089  13.7753  20.5342  23.4924

          k = 0.4011 0.0000 0.6016 (   482 PWs)   bands (ev):

     1.4179   9.3312  10.8426  15.1542  21.8526  22.6231

          k = 0.8021-0.2005 1.0027 (   475 PWs)   bands (ev):

     2.8037   9.8094  10.6704  12.1488  17.3831  19.5785

          k = 0.7019-0.1003 0.9024 (   481 PWs)   bands (ev):

     4.7399   8.0458   8.5572  11.8706  18.4225  22.1058

          k = 0.6016 0.0000 0.8021 (   475 PWs)   bands (ev):

     5.5471   6.6597   8.1290  12.5551  19.2997  25.4852

          k =-0.2005-1.0027 0.0000 (   476 PWs)   bands (ev):

     5.3283   6.6738  10.3353  11.8054  17.0548  19.2745

          k = 0.6016-0.2005 1.0027 (   487 PWs)   bands (ev):

     3.8418   8.3285   9.7409  11.0003  21.7045  23.0917

          k = 0.5013-0.1003 0.9024 (   478 PWs)   bands (ev):

     5.9818   6.2275   9.5268  10.2038  22.6920  23.1291

          k =-0.4011-1.0027 0.0000 (   476 PWs)   bands (ev):

     6.3266   7.6618   7.9944   9.6327  21.3865  22.9885

     the Fermi energy is     8.0564 ev

!    total energy              =     -39.50158863 Ry
     Harris-Foulkes estimate   =     -39.50158863 Ry
     estimated scf accuracy    <          9.2E-12 Ry

     total all-electron energy =      -485.644370 Ry

     The total energy is the sum of the following terms:

     one-electron contribution =       3.17088139 Ry
     hartree contribution      =       0.00564960 Ry
     xc contribution           =      -2.59144998 Ry
     ewald contribution        =      -5.40691475 Ry
     one-center paw contrib.   =     -34.67916282 Ry
     smearing contrib. (-TS)   =      -0.00059208 Ry

     convergence has been achieved in   3 iterations

     Forces acting on atoms (cartesian axes, Ry/au):

     atom    1 type  1   force =     0.00000000    0.00000000    0.00000000

     Total force =     0.000000     Total SCF correction =     0.000000


     Computing stress (Cartesian axis) and pressure

          total   stress  (Ry/bohr**3)                   (kbar)     P=    0.00
   0.00000003   0.00000000   0.00000000          0.00      0.00      0.00
   0.00000000   0.00000003  -0.00000000          0.00      0.00     -0.00
   0.00000000  -0.00000000   0.00000003          0.00     -0.00      0.00

ibrav =      2
 celldm(1) =      7.63166437
Input lattice vectors:
    -0.49867122     0.00000000     0.49867122
     0.00000000     0.49867122     0.49867122
    -0.49867122     0.49867122     0.00000000
New lattice vectors in INITIAL alat:
    -0.49867122     0.00000000     0.49867122
     0.00000000     0.49867122     0.49867122
    -0.49867122     0.49867122     0.00000000
New lattice vectors in NEW alat (for information only):
    -0.50000000     0.00000000     0.50000000
     0.00000000     0.50000000     0.50000000
    -0.50000000     0.50000000     0.00000000
Discrepancy in bohr =     0.000000    0.000000    0.000000

     bfgs converged in   4 scf cycles and   3 bfgs steps
     (criteria: energy <  1.0E-06 Ry, force <  1.0E-05Ry/Bohr, cell <  5.0E-01kbar)

     End of BFGS Geometry Optimization

     Final enthalpy =     -39.5015886313 Ry
Begin final coordinates
     new unit-cell volume =    111.12142 a.u.^3 (    16.46650 Ang^3 )
     density =      2.72091 g/cm^3

CELL_PARAMETERS (alat=  7.65200000)
  -0.498671221   0.000000000   0.498671221
   0.000000000   0.498671221   0.498671221
  -0.498671221   0.498671221   0.000000000

ATOMIC_POSITIONS (alat)
Al       0.000000000   0.000000000   0.000000000
End final coordinates



     Writing output data file al.save/

     A final scf calculation at the relaxed structure.
     The G-vectors are recalculated for the final unit cell
     Results may differ from those at the preceding step.
 
     Parallelization info
     --------------------
     sticks:   dense  smooth     PW     G-vecs:    dense   smooth      PW
     Min         324     156     54                 5423     1917     373
     Max         325     157     55                 5426     1922     376
     Sum         649     313    109                10849     3839     749
 


     bravais-lattice index     =            2
     lattice parameter (alat)  =       7.6520  a.u.
     unit-cell volume          =     111.1214 (a.u.)^3
     number of atoms/cell      =            1
     number of atomic types    =            1
     number of electrons       =         3.00
     number of Kohn-Sham states=            6
     kinetic-energy cutoff     =      40.0000  Ry
     charge density cutoff     =     320.0000  Ry
     convergence threshold     =      1.0E-10
     mixing beta               =       0.7000
     number of iterations used =            8  plain     mixing
     Exchange-correlation      = SLA PW PBX PBC ( 1  4  3  4 0 0)

     celldm(1)=   7.652000  celldm(2)=   0.000000  celldm(3)=   0.000000
     celldm(4)=   0.000000  celldm(5)=   0.000000  celldm(6)=   0.000000

     crystal axes: (cart. coord. in units of alat)
               a(1) = (  -0.498671   0.000000   0.498671 )  
               a(2) = (   0.000000   0.498671   0.498671 )  
               a(3) = (  -0.498671   0.498671   0.000000 )  

     reciprocal axes: (cart. coord. in units 2 pi/alat)
               b(1) = ( -1.002665 -1.002665  1.002665 )  
               b(2) = (  1.002665  1.002665  1.002665 )  
               b(3) = ( -1.002665  1.002665 -1.002665 )  


     PseudoPot. # 1 for Al read from file:
     /home/anonymous/quantumEspresso_2019/SSSP_precision_pseudos/Al.pbe-n-kjpaw_psl.1.0.0.UPF
     MD5 check sum: cfc449ca30b5f3223ec38ddd88ac046d
     Pseudo is Projector augmented-wave + core cor, Zval =  3.0
     Generated using "atomic" code by A. Dal Corso v.5.1
     Shape of augmentation charge: PSQ
     Using radial grid of 1135 points,  6 beta functions with: 
                l(1) =   0
                l(2) =   0
                l(3) =   1
                l(4) =   1
                l(5) =   2
                l(6) =   2
     Q(r) pseudized with 0 coefficients 


     atomic species   valence    mass     pseudopotential
        Al             3.00    26.98154     Al( 1.00)

     48 Sym. Ops., with inversion, found



   Cartesian axes

     site n.     atom                  positions (alat units)
         1           Al  tau(   1) = (   0.0000000   0.0000000   0.0000000  )

     number of k points=    47  gaussian smearing, width (Ry)=  0.0100
                       cart. coord. in units 2pi/alat
        k(    1) = (   0.0000000   0.0000000   0.0000000), wk =   0.0020000
        k(    2) = (  -0.1002665   0.1002665  -0.1002665), wk =   0.0160000
        k(    3) = (  -0.2005329   0.2005329  -0.2005329), wk =   0.0160000
        k(    4) = (  -0.3007994   0.3007994  -0.3007994), wk =   0.0160000
        k(    5) = (  -0.4010659   0.4010659  -0.4010659), wk =   0.0160000
        k(    6) = (   0.5013323  -0.5013323   0.5013323), wk =   0.0080000
        k(    7) = (   0.0000000   0.2005329   0.0000000), wk =   0.0120000
        k(    8) = (  -0.1002665   0.3007994  -0.1002665), wk =   0.0480000
        k(    9) = (  -0.2005329   0.4010659  -0.2005329), wk =   0.0480000
        k(   10) = (  -0.3007994   0.5013323  -0.3007994), wk =   0.0480000
        k(   11) = (   0.6015988  -0.4010659   0.6015988), wk =   0.0480000
        k(   12) = (   0.5013323  -0.3007994   0.5013323), wk =   0.0480000
        k(   13) = (   0.4010659  -0.2005329   0.4010659), wk =   0.0480000
        k(   14) = (   0.3007994  -0.1002665   0.3007994), wk =   0.0480000
        k(   15) = (   0.2005329   0.0000000   0.2005329), wk =   0.0240000
        k(   16) = (   0.0000000   0.4010659   0.0000000), wk =   0.0120000
        k(   17) = (  -0.1002665   0.5013323  -0.1002665), wk =   0.0480000
        k(   18) = (  -0.2005329   0.6015988  -0.2005329), wk =   0.0480000
        k(   19) = (   0.7018652  -0.3007994   0.7018652), wk =   0.0480000
        k(   20) = (   0.6015988  -0.2005329   0.6015988), wk =   0.0480000
        k(   21) = (   0.5013323  -0.1002665   0.5013323), wk =   0.0480000
        k(   22) = (   0.4010659   0.0000000   0.4010659), wk =   0.0240000
        k(   23) = (   0.0000000   0.6015988   0.0000000), wk =   0.0120000
        k(   24) = (  -0.1002665   0.7018652  -0.1002665), wk =   0.0480000
        k(   25) = (   0.8021317  -0.2005329   0.8021317), wk =   0.0480000
        k(   26) = (   0.7018652  -0.1002665   0.7018652), wk =   0.0480000
        k(   27) = (   0.6015988   0.0000000   0.6015988), wk =   0.0240000
        k(   28) = (   0.0000000   0.8021317   0.0000000), wk =   0.0120000
        k(   29) = (   0.9023982  -0.1002665   0.9023982), wk =   0.0480000
        k(   30) = (   0.8021317   0.0000000   0.8021317), wk =   0.0240000
        k(   31) = (   0.0000000  -1.0026646   0.0000000), wk =   0.0060000
        k(   32) = (  -0.2005329   0.4010659   0.0000000), wk =   0.0480000
        k(   33) = (  -0.3007994   0.5013323  -0.1002665), wk =   0.0960000
        k(   34) = (   0.6015988  -0.4010659   0.8021317), wk =   0.0960000
        k(   35) = (   0.5013323  -0.3007994   0.7018652), wk =   0.0480000
        k(   36) = (  -0.2005329   0.6015988   0.0000000), wk =   0.0480000
        k(   37) = (   0.7018652  -0.3007994   0.9023982), wk =   0.0960000
        k(   38) = (   0.6015988  -0.2005329   0.8021317), wk =   0.0960000
        k(   39) = (   0.5013323  -0.1002665   0.7018652), wk =   0.0960000
        k(   40) = (   0.4010659   0.0000000   0.6015988), wk =   0.0480000
        k(   41) = (   0.8021317  -0.2005329   1.0026646), wk =   0.0480000
        k(   42) = (   0.7018652  -0.1002665   0.9023982), wk =   0.0960000
        k(   43) = (   0.6015988   0.0000000   0.8021317), wk =   0.0480000
        k(   44) = (  -0.2005329  -1.0026646   0.0000000), wk =   0.0240000
        k(   45) = (   0.6015988  -0.2005329   1.0026646), wk =   0.0480000
        k(   46) = (   0.5013323  -0.1002665   0.9023982), wk =   0.0480000
        k(   47) = (  -0.4010659  -1.0026646   0.0000000), wk =   0.0240000

     Dense  grid:    10849 G-vectors     FFT dimensions: (  32,  32,  32)

     Smooth grid:     3839 G-vectors     FFT dimensions: (  24,  24,  24)

     Estimated max dynamical RAM per process >      24.64 MB

     Estimated total dynamical RAM >      49.28 MB

     Initial potential from superposition of free atoms

     starting charge    2.99771, renormalised to    3.00000
     Starting wfcs are    4 randomized atomic wfcs +    2 random wfcs
     Checking if some PAW data can be deallocated... 

     total cpu time spent up to now is       15.2 secs

     Self-consistent Calculation

     iteration #  1     ecut=    40.00 Ry     beta= 0.70
     Davidson diagonalization with overlap
     ethr =  1.00E-06,  avg # of iterations = 11.0

     total cpu time spent up to now is       16.3 secs

     total energy              =     -39.50162722 Ry
     Harris-Foulkes estimate   =     -39.50287176 Ry
     estimated scf accuracy    <       0.00549328 Ry

     iteration #  2     ecut=    40.00 Ry     beta= 0.70
     Davidson diagonalization with overlap
     ethr =  1.83E-04,  avg # of iterations =  1.0

     total cpu time spent up to now is       16.7 secs

     total energy              =     -39.50157732 Ry
     Harris-Foulkes estimate   =     -39.50167127 Ry
     estimated scf accuracy    <       0.00039916 Ry

     iteration #  3     ecut=    40.00 Ry     beta= 0.70
     Davidson diagonalization with overlap
     ethr =  1.33E-05,  avg # of iterations =  1.0

     total cpu time spent up to now is       17.2 secs

     total energy              =     -39.50158626 Ry
     Harris-Foulkes estimate   =     -39.50158636 Ry
     estimated scf accuracy    <       0.00000050 Ry

     iteration #  4     ecut=    40.00 Ry     beta= 0.70
     Davidson diagonalization with overlap
     ethr =  1.66E-08,  avg # of iterations =  3.0

     total cpu time spent up to now is       17.7 secs

     total energy              =     -39.50158788 Ry
     Harris-Foulkes estimate   =     -39.50158792 Ry
     estimated scf accuracy    <       0.00000004 Ry

     iteration #  5     ecut=    40.00 Ry     beta= 0.70
     Davidson diagonalization with overlap
     ethr =  1.45E-09,  avg # of iterations =  1.0

     total cpu time spent up to now is       18.1 secs

     total energy              =     -39.50158788 Ry
     Harris-Foulkes estimate   =     -39.50158788 Ry
     estimated scf accuracy    <          5.9E-10 Ry

     iteration #  6     ecut=    40.00 Ry     beta= 0.70
     Davidson diagonalization with overlap
     ethr =  1.98E-11,  avg # of iterations =  2.1

     total cpu time spent up to now is       18.6 secs

     End of self-consistent calculation

          k = 0.0000 0.0000 0.0000 (   531 PWs)   bands (ev):

    -3.2263  20.5465  20.5465  20.5465  22.0602  22.0602

          k =-0.1003 0.1003-0.1003 (   495 PWs)   bands (ev):

    -2.9540  17.2677  19.8305  19.8305  22.7272  23.1816

          k =-0.2005 0.2005-0.2005 (   483 PWs)   bands (ev):

    -2.1406  13.2677  19.0762  19.0762  22.4422  23.5776

          k =-0.3008 0.3008-0.3008 (   483 PWs)   bands (ev):

    -0.7953   9.5677  18.7269  18.7269  21.8283  21.8283

          k =-0.4011 0.4011-0.4011 (   477 PWs)   bands (ev):

     1.0672   6.2765  18.8232  18.8232  20.3818  20.3818

          k = 0.5013-0.5013 0.5013 (   476 PWs)   bands (ev):

     3.3231   3.5426  19.3596  19.3596  19.3897  19.3897

          k = 0.0000 0.2005 0.0000 (   495 PWs)   bands (ev):

    -2.8634  18.4347  18.4347  18.7153  21.2683  23.8667

          k =-0.1003 0.3008-0.1003 (   483 PWs)   bands (ev):

    -2.2307  14.7384  17.4589  18.8624  21.2847  22.0872

          k =-0.2005 0.4011-0.2005 (   482 PWs)   bands (ev):

    -1.0633  10.9635  16.9352  18.5321  19.2656  24.1334

          k =-0.3008 0.5013-0.3008 (   477 PWs)   bands (ev):

     0.6257   7.5456  16.8698  17.5723  18.5523  23.0864

          k = 0.6016-0.4011 0.6016 (   469 PWs)   bands (ev):

     2.8147   4.5642  16.3761  17.2655  18.9918  21.9507

          k = 0.5013-0.3008 0.5013 (   475 PWs)   bands (ev):

     2.0324   5.5042  15.6518  18.1232  19.9093  21.2533

          k = 0.4011-0.2005 0.4011 (   484 PWs)   bands (ev):

     0.0058   8.6335  15.4126  19.4332  21.0073  21.2822

          k = 0.3008-0.1003 0.3008 (   483 PWs)   bands (ev):

    -1.5112  12.1599  15.6766  20.9861  21.3522  23.0496

          k = 0.2005 0.0000 0.2005 (   485 PWs)   bands (ev):

    -2.5015  15.6621  16.7555  21.2538  22.3786  23.5601

          k = 0.0000 0.4011 0.0000 (   480 PWs)   bands (ev):

    -1.7806  16.3050  16.3050  16.3743  18.6913  19.7203

          k =-0.1003 0.5013-0.1003 (   476 PWs)   bands (ev):

    -0.7954  12.7640  15.6161  16.3367  17.0448  20.4417

          k =-0.2005 0.6016-0.2005 (   465 PWs)   bands (ev):

     0.7132   9.2854  14.4846  15.3910  17.0557  22.9559

          k = 0.7019-0.3008 0.7019 (   470 PWs)   bands (ev):

     2.7262   6.1826  13.0949  15.6294  17.3866  24.9680

          k = 0.6016-0.2005 0.6016 (   471 PWs)   bands (ev):

     3.5064   5.2374  12.2026  16.3320  18.1862  24.1423

          k = 0.5013-0.1003 0.5013 (   477 PWs)   bands (ev):

     1.3307   8.1481  11.8531  17.4986  19.4585  23.7368

          k = 0.4011 0.0000 0.4011 (   475 PWs)   bands (ev):

    -0.3497  11.0035  12.4971  19.1209  21.1523  23.3600

          k = 0.0000 0.6016 0.0000 (   480 PWs)   bands (ev):

     0.0049  13.8216  14.6135  14.7669  14.7669  18.2885

          k =-0.1003 0.7019-0.1003 (   471 PWs)   bands (ev):

     1.3273  11.3733  11.8185  14.3837  15.6826  19.2682

          k = 0.8021-0.2005 0.8021 (   472 PWs)   bands (ev):

     3.1505   8.2586  10.2066  14.4648  16.0489  22.1157

          k = 0.7019-0.1003 0.7019 (   471 PWs)   bands (ev):

     5.3220   5.5925   9.1694  15.0101  16.7321  25.4995

          k = 0.6016 0.0000 0.6016 (   470 PWs)   bands (ev):

     3.1629   7.6604   9.1637  16.0213  17.8776  26.7972

          k = 0.0000 0.8021 0.0000 (   460 PWs)   bands (ev):

     2.4559   9.4935  13.5421  13.8437  13.8437  17.3366

          k = 0.9024-0.1003 0.9024 (   468 PWs)   bands (ev):

     4.0573   7.7598  10.7817  13.7681  14.9958  18.6490

          k = 0.8021 0.0000 0.8021 (   474 PWs)   bands (ev):

     5.6608   6.9773   8.0140  14.1564  15.7045  21.8242

          k = 0.0000-1.0027 0.0000 (   468 PWs)   bands (ev):

     4.9961   6.3250  13.1832  13.5363  13.5363  17.0059

          k =-0.2005 0.4011 0.0000 (   480 PWs)   bands (ev):

    -1.4215  13.3436  14.6487  18.9837  19.9346  21.7666

          k =-0.3008 0.5013-0.1003 (   474 PWs)   bands (ev):

    -0.0831  10.1613  13.7815  17.0013  20.2638  23.3285

          k = 0.6016-0.4011 0.8021 (   476 PWs)   bands (ev):

     1.7690   6.9391  13.8075  15.4787  20.4629  22.1437

          k = 0.5013-0.3008 0.7019 (   472 PWs)   bands (ev):

     3.9943   4.2470  14.1909  14.6012  20.9088  21.2630

          k =-0.2005 0.6016 0.0000 (   471 PWs)   bands (ev):

     0.3595  11.6746  13.0080  14.2354  18.3609  20.4548

          k = 0.7019-0.3008 0.9024 (   474 PWs)   bands (ev):

     2.0287   8.8127  12.2067  12.7434  19.0602  22.6513

          k = 0.6016-0.2005 0.8021 (   472 PWs)   bands (ev):

     4.1822   5.9192  11.1782  12.9016  19.6074  24.2001

          k = 0.5013-0.1003 0.7019 (   471 PWs)   bands (ev):

     3.4201   6.7951  10.5089  13.7753  20.5342  23.4924

          k = 0.4011 0.0000 0.6016 (   478 PWs)   bands (ev):

     1.4179   9.3312  10.8426  15.1542  21.8526  22.6231

          k = 0.8021-0.2005 1.0027 (   467 PWs)   bands (ev):

     2.8037   9.8094  10.6704  12.1488  17.3831  19.5785

          k = 0.7019-0.1003 0.9024 (   476 PWs)   bands (ev):

     4.7399   8.0458   8.5572  11.8706  18.4225  22.1058

          k = 0.6016 0.0000 0.8021 (   475 PWs)   bands (ev):

     5.5471   6.6597   8.1290  12.5551  19.2997  25.4851

          k =-0.2005-1.0027 0.0000 (   470 PWs)   bands (ev):

     5.3283   6.6738  10.3353  11.8054  17.0548  19.2745

          k = 0.6016-0.2005 1.0027 (   481 PWs)   bands (ev):

     3.8418   8.3285   9.7409  11.0003  21.7045  23.0917

          k = 0.5013-0.1003 0.9024 (   474 PWs)   bands (ev):

     5.9818   6.2275   9.5268  10.2038  22.6920  23.1291

          k =-0.4011-1.0027 0.0000 (   476 PWs)   bands (ev):

     6.3266   7.6618   7.9944   9.6327  21.3865  22.9885

     the Fermi energy is     8.0564 ev

!    total energy              =     -39.50158788 Ry
     Harris-Foulkes estimate   =     -39.50158788 Ry
     estimated scf accuracy    <          9.7E-12 Ry

     total all-electron energy =      -485.644369 Ry

     The total energy is the sum of the following terms:

     one-electron contribution =       3.17088359 Ry
     hartree contribution      =       0.00564959 Ry
     xc contribution           =      -2.59145026 Ry
     ewald contribution        =      -5.40691475 Ry
     one-center paw contrib.   =     -34.67916397 Ry
     smearing contrib. (-TS)   =      -0.00059208 Ry

     convergence has been achieved in   6 iterations

     Forces acting on atoms (cartesian axes, Ry/au):

     atom    1 type  1   force =     0.00000000    0.00000000    0.00000000

     Total force =     0.000000     Total SCF correction =     0.000000


     Computing stress (Cartesian axis) and pressure

          total   stress  (Ry/bohr**3)                   (kbar)     P=    0.00
   0.00000003   0.00000000   0.00000000          0.00      0.00      0.00
   0.00000000   0.00000003  -0.00000000          0.00      0.00     -0.00
   0.00000000  -0.00000000   0.00000003          0.00     -0.00      0.00


     Writing output data file al.save/
 
     init_run     :      1.63s CPU      1.67s WALL (       2 calls)
     electrons    :     11.18s CPU     11.43s WALL (       5 calls)
     update_pot   :      1.32s CPU      1.32s WALL (       3 calls)
     forces       :      0.92s CPU      0.93s WALL (       5 calls)
     stress       :      2.12s CPU      2.13s WALL (       5 calls)

     Called by init_run:
     wfcinit      :      0.17s CPU      0.18s WALL (       2 calls)
     potinit      :      0.37s CPU      0.39s WALL (       2 calls)
     hinit0       :      0.99s CPU      0.99s WALL (       2 calls)

     Called by electrons:
     c_bands      :      6.13s CPU      6.31s WALL (      24 calls)
     sum_band     :      1.58s CPU      1.63s WALL (      24 calls)
     v_of_rho     :      0.34s CPU      0.34s WALL (      25 calls)
     newd         :      0.44s CPU      0.45s WALL (      25 calls)
     PAW_pot      :      3.86s CPU      3.89s WALL (      28 calls)
     mix_rho      :      0.03s CPU      0.03s WALL (      24 calls)

     Called by c_bands:
     init_us_2    :      0.32s CPU      0.33s WALL (    2961 calls)
     cegterg      :      5.44s CPU      5.60s WALL (    1128 calls)

     Called by sum_band:
     sum_band:bec :      0.01s CPU      0.01s WALL (    1269 calls)
     addusdens    :      0.47s CPU      0.49s WALL (      24 calls)

     Called by *egterg:
     h_psi        :      4.45s CPU      4.60s WALL (    3667 calls)
     s_psi        :      0.10s CPU      0.10s WALL (    3667 calls)
     g_psi        :      0.03s CPU      0.03s WALL (    2445 calls)
     cdiaghg      :      0.45s CPU      0.46s WALL (    3244 calls)

     Called by h_psi:
     h_psi:pot    :      4.43s CPU      4.57s WALL (    3667 calls)
     h_psi:calbec :      0.25s CPU      0.26s WALL (    3667 calls)
     vloc_psi     :      4.04s CPU      4.17s WALL (    3667 calls)
     add_vuspsi   :      0.11s CPU      0.12s WALL (    3667 calls)

     General routines
     calbec       :      0.41s CPU      0.42s WALL (    6111 calls)
     fft          :      0.27s CPU      0.28s WALL (     447 calls)
     ffts         :      0.01s CPU      0.01s WALL (      49 calls)
     fftw         :      4.36s CPU      4.51s WALL (   42322 calls)
     interpolate  :      0.02s CPU      0.02s WALL (      25 calls)
 
     Parallel routines
     fft_scatt_xy :      0.44s CPU      0.45s WALL (   42818 calls)
     fft_scatt_yz :      1.74s CPU      1.80s WALL (   42818 calls)
 
     PWSCF        :     18.55s CPU     18.92s WALL

 
   This run was terminated on:   1:17:12  27Jun2019            

=------------------------------------------------------------------------------=
   JOB DONE.
=------------------------------------------------------------------------------=
