
     Program PWSCF v.6.4.1 starts on 27Jun2019 at  1:19:43 

     This program is part of the open-source Quantum ESPRESSO suite
     for quantum simulation of materials; please cite
         "P. Giannozzi et al., J. Phys.:Condens. Matter 21 395502 (2009);
         "P. Giannozzi et al., J. Phys.:Condens. Matter 29 465901 (2017);
          URL http://www.quantum-espresso.org", 
     in publications or presentations arising from this work. More details at
     http://www.quantum-espresso.org/quote

     Parallel version (MPI), running on     2 processors

     MPI processes distributed on     1 nodes
     R & G space division:  proc/nbgrp/npool/nimage =       2
     Reading input from al.2_scf.in

     Current dimensions of program PWSCF are:
     Max number of different atomic species (ntypx) = 10
     Max number of k-points (npk) =  40000
     Max angular momentum in pseudopotentials (lmaxx) =  3
               file Al.pbe-n-kjpaw_psl.1.0.0.UPF: wavefunction(s)  3S 3P renormalized

     Subspace diagonalization in iterative solution of the eigenvalue problem:
     a serial algorithm will be used

 
     Parallelization info
     --------------------
     sticks:   dense  smooth     PW     G-vecs:    dense   smooth      PW
     Min         324     156     54                 5423     1917     373
     Max         325     157     55                 5426     1922     376
     Sum         649     313    109                10849     3839     749
 


     bravais-lattice index     =            2
     lattice parameter (alat)  =       7.6317  a.u.
     unit-cell volume          =     111.1214 (a.u.)^3
     number of atoms/cell      =            1
     number of atomic types    =            1
     number of electrons       =         3.00
     number of Kohn-Sham states=            6
     kinetic-energy cutoff     =      40.0000  Ry
     charge density cutoff     =     320.0000  Ry
     convergence threshold     =      1.0E-08
     mixing beta               =       0.7000
     number of iterations used =            8  plain     mixing
     Exchange-correlation      = SLA PW PBX PBC ( 1  4  3  4 0 0)

     celldm(1)=   7.631664  celldm(2)=   0.000000  celldm(3)=   0.000000
     celldm(4)=   0.000000  celldm(5)=   0.000000  celldm(6)=   0.000000

     crystal axes: (cart. coord. in units of alat)
               a(1) = (  -0.500000   0.000000   0.500000 )  
               a(2) = (   0.000000   0.500000   0.500000 )  
               a(3) = (  -0.500000   0.500000   0.000000 )  

     reciprocal axes: (cart. coord. in units 2 pi/alat)
               b(1) = ( -1.000000 -1.000000  1.000000 )  
               b(2) = (  1.000000  1.000000  1.000000 )  
               b(3) = ( -1.000000  1.000000 -1.000000 )  


     PseudoPot. # 1 for Al read from file:
     /home/anonymous/quantumEspresso_2019/SSSP_precision_pseudos/Al.pbe-n-kjpaw_psl.1.0.0.UPF
     MD5 check sum: cfc449ca30b5f3223ec38ddd88ac046d
     Pseudo is Projector augmented-wave + core cor, Zval =  3.0
     Generated using "atomic" code by A. Dal Corso v.5.1
     Shape of augmentation charge: PSQ
     Using radial grid of 1135 points,  6 beta functions with: 
                l(1) =   0
                l(2) =   0
                l(3) =   1
                l(4) =   1
                l(5) =   2
                l(6) =   2
     Q(r) pseudized with 0 coefficients 


     atomic species   valence    mass     pseudopotential
        Al             3.00    26.98154     Al( 1.00)

     48 Sym. Ops., with inversion, found



   Cartesian axes

     site n.     atom                  positions (alat units)
         1           Al  tau(   1) = (   0.0000000   0.0000000   0.0000000  )

     number of k points=    47  gaussian smearing, width (Ry)=  0.0100
                       cart. coord. in units 2pi/alat
        k(    1) = (   0.0000000   0.0000000   0.0000000), wk =   0.0020000
        k(    2) = (  -0.1000000   0.1000000  -0.1000000), wk =   0.0160000
        k(    3) = (  -0.2000000   0.2000000  -0.2000000), wk =   0.0160000
        k(    4) = (  -0.3000000   0.3000000  -0.3000000), wk =   0.0160000
        k(    5) = (  -0.4000000   0.4000000  -0.4000000), wk =   0.0160000
        k(    6) = (   0.5000000  -0.5000000   0.5000000), wk =   0.0080000
        k(    7) = (   0.0000000   0.2000000   0.0000000), wk =   0.0120000
        k(    8) = (  -0.1000000   0.3000000  -0.1000000), wk =   0.0480000
        k(    9) = (  -0.2000000   0.4000000  -0.2000000), wk =   0.0480000
        k(   10) = (  -0.3000000   0.5000000  -0.3000000), wk =   0.0480000
        k(   11) = (   0.6000000  -0.4000000   0.6000000), wk =   0.0480000
        k(   12) = (   0.5000000  -0.3000000   0.5000000), wk =   0.0480000
        k(   13) = (   0.4000000  -0.2000000   0.4000000), wk =   0.0480000
        k(   14) = (   0.3000000  -0.1000000   0.3000000), wk =   0.0480000
        k(   15) = (   0.2000000   0.0000000   0.2000000), wk =   0.0240000
        k(   16) = (   0.0000000   0.4000000   0.0000000), wk =   0.0120000
        k(   17) = (  -0.1000000   0.5000000  -0.1000000), wk =   0.0480000
        k(   18) = (  -0.2000000   0.6000000  -0.2000000), wk =   0.0480000
        k(   19) = (   0.7000000  -0.3000000   0.7000000), wk =   0.0480000
        k(   20) = (   0.6000000  -0.2000000   0.6000000), wk =   0.0480000
        k(   21) = (   0.5000000  -0.1000000   0.5000000), wk =   0.0480000
        k(   22) = (   0.4000000   0.0000000   0.4000000), wk =   0.0240000
        k(   23) = (   0.0000000   0.6000000   0.0000000), wk =   0.0120000
        k(   24) = (  -0.1000000   0.7000000  -0.1000000), wk =   0.0480000
        k(   25) = (   0.8000000  -0.2000000   0.8000000), wk =   0.0480000
        k(   26) = (   0.7000000  -0.1000000   0.7000000), wk =   0.0480000
        k(   27) = (   0.6000000  -0.0000000   0.6000000), wk =   0.0240000
        k(   28) = (   0.0000000   0.8000000   0.0000000), wk =   0.0120000
        k(   29) = (   0.9000000  -0.1000000   0.9000000), wk =   0.0480000
        k(   30) = (   0.8000000   0.0000000   0.8000000), wk =   0.0240000
        k(   31) = (   0.0000000  -1.0000000   0.0000000), wk =   0.0060000
        k(   32) = (  -0.2000000   0.4000000   0.0000000), wk =   0.0480000
        k(   33) = (  -0.3000000   0.5000000  -0.1000000), wk =   0.0960000
        k(   34) = (   0.6000000  -0.4000000   0.8000000), wk =   0.0960000
        k(   35) = (   0.5000000  -0.3000000   0.7000000), wk =   0.0480000
        k(   36) = (  -0.2000000   0.6000000   0.0000000), wk =   0.0480000
        k(   37) = (   0.7000000  -0.3000000   0.9000000), wk =   0.0960000
        k(   38) = (   0.6000000  -0.2000000   0.8000000), wk =   0.0960000
        k(   39) = (   0.5000000  -0.1000000   0.7000000), wk =   0.0960000
        k(   40) = (   0.4000000   0.0000000   0.6000000), wk =   0.0480000
        k(   41) = (   0.8000000  -0.2000000   1.0000000), wk =   0.0480000
        k(   42) = (   0.7000000  -0.1000000   0.9000000), wk =   0.0960000
        k(   43) = (   0.6000000   0.0000000   0.8000000), wk =   0.0480000
        k(   44) = (  -0.2000000  -1.0000000   0.0000000), wk =   0.0240000
        k(   45) = (   0.6000000  -0.2000000   1.0000000), wk =   0.0480000
        k(   46) = (   0.5000000  -0.1000000   0.9000000), wk =   0.0480000
        k(   47) = (  -0.4000000  -1.0000000   0.0000000), wk =   0.0240000

     Dense  grid:    10849 G-vectors     FFT dimensions: (  32,  32,  32)

     Smooth grid:     3839 G-vectors     FFT dimensions: (  24,  24,  24)

     Estimated max dynamical RAM per process >      21.69 MB

     Estimated total dynamical RAM >      43.37 MB

     Initial potential from superposition of free atoms

     starting charge    2.99771, renormalised to    3.00000
     Starting wfcs are    4 randomized atomic wfcs +    2 random wfcs
     Checking if some PAW data can be deallocated... 

     total cpu time spent up to now is        1.3 secs

     Self-consistent Calculation

     iteration #  1     ecut=    40.00 Ry     beta= 0.70
     Davidson diagonalization with overlap
     ethr =  1.00E-02,  avg # of iterations =  4.6

     Threshold (ethr) on eigenvalues was too large:
     Diagonalizing with lowered threshold

     Davidson diagonalization with overlap
     ethr =  1.85E-04,  avg # of iterations =  1.7

     total cpu time spent up to now is        2.3 secs

     total energy              =     -39.50161885 Ry
     Harris-Foulkes estimate   =     -39.50283012 Ry
     estimated scf accuracy    <       0.00550034 Ry

     iteration #  2     ecut=    40.00 Ry     beta= 0.70
     Davidson diagonalization with overlap
     ethr =  1.83E-04,  avg # of iterations =  1.1

     total cpu time spent up to now is        2.8 secs

     total energy              =     -39.50157789 Ry
     Harris-Foulkes estimate   =     -39.50166822 Ry
     estimated scf accuracy    <       0.00039607 Ry

     iteration #  3     ecut=    40.00 Ry     beta= 0.70
     Davidson diagonalization with overlap
     ethr =  1.32E-05,  avg # of iterations =  2.0

     total cpu time spent up to now is        3.3 secs

     total energy              =     -39.50158653 Ry
     Harris-Foulkes estimate   =     -39.50158666 Ry
     estimated scf accuracy    <       0.00000051 Ry

     iteration #  4     ecut=    40.00 Ry     beta= 0.70
     Davidson diagonalization with overlap
     ethr =  1.69E-08,  avg # of iterations =  2.8

     total cpu time spent up to now is        3.8 secs

     total energy              =     -39.50158788 Ry
     Harris-Foulkes estimate   =     -39.50158790 Ry
     estimated scf accuracy    <       0.00000002 Ry

     iteration #  5     ecut=    40.00 Ry     beta= 0.70
     Davidson diagonalization with overlap
     ethr =  7.08E-10,  avg # of iterations =  1.2

     total cpu time spent up to now is        4.3 secs

     End of self-consistent calculation

          k = 0.0000 0.0000 0.0000 (   531 PWs)   bands (ev):

    -3.2263  20.5465  20.5465  22.0601  22.0601  22.0601

          k =-0.1000 0.1000-0.1000 (   495 PWs)   bands (ev):

    -2.9541  17.2676  19.8305  19.8305  22.7272  23.1815

          k =-0.2000 0.2000-0.2000 (   483 PWs)   bands (ev):

    -2.1406  13.2676  19.0761  19.0762  22.4423  23.5776

          k =-0.3000 0.3000-0.3000 (   483 PWs)   bands (ev):

    -0.7953   9.5677  18.7268  18.7268  21.8282  21.8282

          k =-0.4000 0.4000-0.4000 (   477 PWs)   bands (ev):

     1.0672   6.2765  18.8232  18.8232  20.3817  20.3817

          k = 0.5000-0.5000 0.5000 (   476 PWs)   bands (ev):

     3.3231   3.5426  19.3596  19.3596  19.3897  19.3897

          k = 0.0000 0.2000 0.0000 (   495 PWs)   bands (ev):

    -2.8634  18.4347  18.4347  18.7153  21.2682  23.8667

          k =-0.1000 0.3000-0.1000 (   483 PWs)   bands (ev):

    -2.2308  14.7383  17.4589  18.8624  21.2847  22.0872

          k =-0.2000 0.4000-0.2000 (   482 PWs)   bands (ev):

    -1.0634  10.9635  16.9351  18.5321  19.2656  24.1333

          k =-0.3000 0.5000-0.3000 (   477 PWs)   bands (ev):

     0.6257   7.5456  16.8698  17.5723  18.5522  23.0864

          k = 0.6000-0.4000 0.6000 (   469 PWs)   bands (ev):

     2.8147   4.5642  16.3761  17.2655  18.9918  21.9506

          k = 0.5000-0.3000 0.5000 (   475 PWs)   bands (ev):

     2.0324   5.5042  15.6518  18.1231  19.9093  21.2533

          k = 0.4000-0.2000 0.4000 (   484 PWs)   bands (ev):

     0.0058   8.6335  15.4126  19.4332  21.0073  21.2821

          k = 0.3000-0.1000 0.3000 (   483 PWs)   bands (ev):

    -1.5112  12.1599  15.6766  20.9861  21.3522  23.0496

          k = 0.2000 0.0000 0.2000 (   485 PWs)   bands (ev):

    -2.5016  15.6621  16.7554  21.2538  22.3785  23.5601

          k = 0.0000 0.4000 0.0000 (   480 PWs)   bands (ev):

    -1.7806  16.3049  16.3049  16.3743  18.6912  19.7203

          k =-0.1000 0.5000-0.1000 (   476 PWs)   bands (ev):

    -0.7955  12.7640  15.6161  16.3367  17.0448  20.4417

          k =-0.2000 0.6000-0.2000 (   465 PWs)   bands (ev):

     0.7132   9.2854  14.4845  15.3910  17.0557  22.9559

          k = 0.7000-0.3000 0.7000 (   470 PWs)   bands (ev):

     2.7262   6.1826  13.0948  15.6293  17.3866  24.9682

          k = 0.6000-0.2000 0.6000 (   471 PWs)   bands (ev):

     3.5064   5.2374  12.2026  16.3319  18.1861  24.1423

          k = 0.5000-0.1000 0.5000 (   477 PWs)   bands (ev):

     1.3307   8.1481  11.8531  17.4985  19.4585  23.7369

          k = 0.4000 0.0000 0.4000 (   475 PWs)   bands (ev):

    -0.3497  11.0035  12.4971  19.1208  21.1523  23.3600

          k = 0.0000 0.6000 0.0000 (   480 PWs)   bands (ev):

     0.0049  13.8216  14.6135  14.7668  14.7668  18.2885

          k =-0.1000 0.7000-0.1000 (   471 PWs)   bands (ev):

     1.3272  11.3733  11.8184  14.3837  15.6825  19.2682

          k = 0.8000-0.2000 0.8000 (   472 PWs)   bands (ev):

     3.1505   8.2585  10.2066  14.4647  16.0489  22.1156

          k = 0.7000-0.1000 0.7000 (   471 PWs)   bands (ev):

     5.3220   5.5924   9.1694  15.0101  16.7321  25.4995

          k = 0.6000-0.0000 0.6000 (   470 PWs)   bands (ev):

     3.1629   7.6604   9.1637  16.0213  17.8776  27.0551

          k = 0.0000 0.8000 0.0000 (   460 PWs)   bands (ev):

     2.4558   9.4935  13.5420  13.8437  13.8437  17.3365

          k = 0.9000-0.1000 0.9000 (   468 PWs)   bands (ev):

     4.0573   7.7598  10.7817  13.7681  14.9957  18.6490

          k = 0.8000 0.0000 0.8000 (   474 PWs)   bands (ev):

     5.6608   6.9773   8.0140  14.1564  15.7045  21.8242

          k = 0.0000-1.0000 0.0000 (   468 PWs)   bands (ev):

     4.9961   6.3250  13.1832  13.5363  13.5363  17.0058

          k =-0.2000 0.4000 0.0000 (   480 PWs)   bands (ev):

    -1.4215  13.3435  14.6487  18.9836  19.9345  21.7666

          k =-0.3000 0.5000-0.1000 (   474 PWs)   bands (ev):

    -0.0832  10.1613  13.7814  17.0013  20.2637  23.3285

          k = 0.6000-0.4000 0.8000 (   476 PWs)   bands (ev):

     1.7690   6.9391  13.8075  15.4786  20.4628  22.1437

          k = 0.5000-0.3000 0.7000 (   472 PWs)   bands (ev):

     3.9943   4.2469  14.1909  14.6011  20.9087  21.2630

          k =-0.2000 0.6000 0.0000 (   471 PWs)   bands (ev):

     0.3595  11.6746  13.0079  14.2354  18.3608  20.4547

          k = 0.7000-0.3000 0.9000 (   474 PWs)   bands (ev):

     2.0286   8.8127  12.2067  12.7434  19.0602  22.6513

          k = 0.6000-0.2000 0.8000 (   472 PWs)   bands (ev):

     4.1822   5.9191  11.1782  12.9015  19.6074  24.2001

          k = 0.5000-0.1000 0.7000 (   471 PWs)   bands (ev):

     3.4201   6.7951  10.5089  13.7753  20.5342  23.4924

          k = 0.4000 0.0000 0.6000 (   478 PWs)   bands (ev):

     1.4179   9.3312  10.8426  15.1542  21.8525  22.6231

          k = 0.8000-0.2000 1.0000 (   467 PWs)   bands (ev):

     2.8036   9.8093  10.6704  12.1488  17.3831  19.5785

          k = 0.7000-0.1000 0.9000 (   476 PWs)   bands (ev):

     4.7399   8.0458   8.5572  11.8705  18.4224  22.1057

          k = 0.6000 0.0000 0.8000 (   475 PWs)   bands (ev):

     5.5470   6.6597   8.1289  12.5551  19.2997  25.4851

          k =-0.2000-1.0000 0.0000 (   470 PWs)   bands (ev):

     5.3283   6.6738  10.3353  11.8054  17.0547  19.2744

          k = 0.6000-0.2000 1.0000 (   481 PWs)   bands (ev):

     3.8418   8.3285   9.7409  11.0003  21.7045  23.0917

          k = 0.5000-0.1000 0.9000 (   474 PWs)   bands (ev):

     5.9818   6.2275   9.5268  10.2037  22.6920  23.1291

          k =-0.4000-1.0000 0.0000 (   476 PWs)   bands (ev):

     6.3265   7.6618   7.9944   9.6326  21.3865  22.9885

     the Fermi energy is     8.0564 ev

!    total energy              =     -39.50158788 Ry
     Harris-Foulkes estimate   =     -39.50158788 Ry
     estimated scf accuracy    <          1.1E-10 Ry

     total all-electron energy =      -485.644369 Ry

     The total energy is the sum of the following terms:

     one-electron contribution =       3.17088760 Ry
     hartree contribution      =       0.00564948 Ry
     xc contribution           =      -2.59145167 Ry
     ewald contribution        =      -5.40691476 Ry
     one-center paw contrib.   =     -34.67916646 Ry
     smearing contrib. (-TS)   =      -0.00059208 Ry

     convergence has been achieved in   5 iterations

     Writing output data file al.save/
 
     init_run     :      0.51s CPU      0.57s WALL (       1 calls)
     electrons    :      2.84s CPU      2.91s WALL (       1 calls)

     Called by init_run:
     wfcinit      :      0.08s CPU      0.09s WALL (       1 calls)
     potinit      :      0.17s CPU      0.18s WALL (       1 calls)
     hinit0       :      0.22s CPU      0.25s WALL (       1 calls)

     Called by electrons:
     c_bands      :      1.57s CPU      1.60s WALL (       6 calls)
     sum_band     :      0.40s CPU      0.42s WALL (       6 calls)
     v_of_rho     :      0.08s CPU      0.08s WALL (       6 calls)
     newd         :      0.10s CPU      0.11s WALL (       6 calls)
     PAW_pot      :      0.85s CPU      0.87s WALL (       6 calls)
     mix_rho      :      0.01s CPU      0.01s WALL (       6 calls)

     Called by c_bands:
     init_us_2    :      0.06s CPU      0.07s WALL (     611 calls)
     cegterg      :      1.39s CPU      1.42s WALL (     282 calls)

     Called by sum_band:
     sum_band:bec :      0.00s CPU      0.00s WALL (     282 calls)
     addusdens    :      0.12s CPU      0.12s WALL (       6 calls)

     Called by *egterg:
     h_psi        :      1.16s CPU      1.19s WALL (     964 calls)
     s_psi        :      0.03s CPU      0.03s WALL (     964 calls)
     g_psi        :      0.01s CPU      0.01s WALL (     635 calls)
     cdiaghg      :      0.12s CPU      0.13s WALL (     870 calls)

     Called by h_psi:
     h_psi:pot    :      1.16s CPU      1.19s WALL (     964 calls)
     h_psi:calbec :      0.07s CPU      0.07s WALL (     964 calls)
     vloc_psi     :      1.05s CPU      1.08s WALL (     964 calls)
     add_vuspsi   :      0.03s CPU      0.03s WALL (     964 calls)

     General routines
     calbec       :      0.08s CPU      0.08s WALL (    1246 calls)
     fft          :      0.04s CPU      0.04s WALL (      77 calls)
     ffts         :      0.00s CPU      0.00s WALL (      12 calls)
     fftw         :      1.13s CPU      1.16s WALL (   10706 calls)
     interpolate  :      0.01s CPU      0.01s WALL (       6 calls)
 
     Parallel routines
     fft_scatt_xy :      0.11s CPU      0.11s WALL (   10795 calls)
     fft_scatt_yz :      0.44s CPU      0.45s WALL (   10795 calls)
 
     PWSCF        :      4.15s CPU      4.29s WALL

 
   This run was terminated on:   1:19:48  27Jun2019            

=------------------------------------------------------------------------------=
   JOB DONE.
=------------------------------------------------------------------------------=
