
     Program CP v.6.4.1 starts on 11Apr2020 at 14:31:55 

     This program is part of the open-source Quantum ESPRESSO suite
     for quantum simulation of materials; please cite
         "P. Giannozzi et al., J. Phys.:Condens. Matter 21 395502 (2009);
         "P. Giannozzi et al., J. Phys.:Condens. Matter 29 465901 (2017);
          URL http://www.quantum-espresso.org", 
     in publications or presentations arising from this work. More details at
     http://www.quantum-espresso.org/quote

     Parallel version (MPI), running on     2 processors

     MPI processes distributed on     1 nodes
     R & G space division:  proc/nbgrp/npool/nimage =       2
     Waiting for input...
     Reading input from standard input

   Job Title: MD Simulation


   Atomic Pseudopotentials Parameters
   ----------------------------------

   Reading pseudopotential for specie #  1 from file :
   /home/anonymous/quantumEspresso_2019/SSSP_precision_pseudos/Si.pbe-n-rrkjus_psl.1.0.0.UPF
   file type is UPF v.2


   Main Simulation Parameters (from input)
   ---------------------------------------
   Restart Mode       =      -1   from_scratch   
   Number of MD Steps =     500
   Print out every           10 MD Steps
   Reads from unit    =      50
   Writes to unit     =      50
   MD Simulation time step            =       5.00
   Electronic fictitious mass (emass) =     300.00
   emass cut-off                      =       2.50

   Simulation Cell Parameters (from input)
   external pressure       =            0.00 [KBar]
   wmass (calculated)      =        31123.88 [AU]
   ibrav =    8
   alat  =    10.64076206
   a1    =    10.64076206    0.00000000    0.00000000
   a2    =     0.00000000   10.64076206    0.00000000
   a3    =     0.00000000    0.00000000   10.64076206
 
   b1    =     0.09397823    0.00000000    0.00000000
   b2    =     0.00000000    0.09397823    0.00000000
   b3    =     0.00000000    0.00000000    0.09397823
   omega =    1204.80898162

   Energy Cut-offs
   ---------------
   Ecutwfc =   50.0 Ry,      Ecutrho =  400.0 Ry,      Ecuts =  200.0 Ry
   Gcutwfc =   12.0     ,    Gcutrho =   33.9          Gcuts =   24.0
   NOTA BENE: refg, mmx =   0.050000  9600
   Eigenvalues calculated without the kinetic term contribution
   Orthog. with lagrange multipliers : eps =   0.10E-10,  max =  30
   verlet algorithm for electron dynamics
   with friction frice =  0.0500 , grease =  1.0000
   Electron dynamics : the temperature is not controlled
   initial random displacement of el. coordinates with  amplitude=  0.020000

   Electronic states
   -----------------
   Number of Electrons=    32, of States =    16
   Occupation numbers :
   2.00 2.00 2.00 2.00 2.00 2.00 2.00 2.00 2.00 2.00
   2.00 2.00 2.00 2.00 2.00 2.00


   Exchange and correlations functionals
   -------------------------------------
     Exchange-correlation      = PBE ( 1  4  3  4 0 0)


   Ions Simulation Parameters
   --------------------------
   Ions are not allowed to move
   Ionic position (from input)
   sorted by specie, and converted to real a.u. coordinates
   Species   1 atoms =    8 mass =     51196.73 (a.u.),        28.09 (amu) rcmax =   0.50 (a.u.)
        0.000000     0.000000     0.000000
        0.000000     5.320381     5.320381
        5.320381     5.320381     0.000000
        5.320381     0.000000     5.320381
        2.660191     2.660191     2.660191
        2.660191     7.980572     7.980572
        7.980572     7.980572     2.660191
        7.980572     2.660191     7.980572
   Ionic position read from input file


   Cell Dynamics Parameters (from STDIN)
   -------------------------------------
   internal stress tensor calculated
   Starting cell generated from CELLDM
   Constant VOLUME Molecular dynamics
   cell parameters are not allowed to move

   Verbosity: iverbosity =  0



   Simulation dimensions initialization
   ------------------------------------

   unit vectors of full simulation cell
   in real space:                         in reciprocal space (units 2pi/alat):
   1    10.6408    0.0000    0.0000              1.0000    0.0000    0.0000
   2     0.0000   10.6408    0.0000              0.0000    1.0000    0.0000
   3     0.0000    0.0000   10.6408              0.0000    0.0000    1.0000
 
     Parallelization info
     --------------------
     sticks:   dense  smooth     PW     G-vecs:    dense   smooth      PW
     Min        1795     894    218                81445    28774    3558
     Max        1798     895    219                81446    28781    3565
     Sum        3593    1789    437               162891    57555    7123
 
 
   Real Mesh
   ---------
   Global Dimensions   Local  Dimensions   Processor Grid
   .X.   .Y.   .Z.     .X.   .Y.   .Z.     .X.   .Y.   .Z.
    72    72    72      72    72    36       1     1     2
   Array leading dimensions ( nr1x, nr2x, nr3x )   =     72    72    72
   Local number of cell to store the grid ( nrxx ) =     186624
   Number of x-y planes for each processors: 
  |  72,  36  |  72,  36  |
 
   Smooth Real Mesh
   ----------------
   Global Dimensions   Local  Dimensions   Processor Grid
   .X.   .Y.   .Z.     .X.   .Y.   .Z.     .X.   .Y.   .Z.
    48    48    48      48    48    24       1     1     2
   Array leading dimensions ( nr1x, nr2x, nr3x )   =     48    48    48
   Local number of cell to store the grid ( nrxx ) =      55296
   Number of x-y planes for each processors: 
  |  48,  24  |  48,  24  |
 
   Small Box Real Mesh
   -------------------
   Global Dimensions   Local  Dimensions   Processor Grid
   .X.   .Y.   .Z.     .X.   .Y.   .Z.     .X.   .Y.   .Z.
    20    20    20      20    20    20       1     1     1
   Array leading dimensions ( nr1x, nr2x, nr3x )   =     20    20    20
   Local number of cell to store the grid ( nrxx ) =       8000
 
   unit vectors of box grid cell
   in real space:                         in reciprocal space:
       2.9558    0.0000    0.0000              1.0000    0.0000    0.0000
       0.0000    2.9558    0.0000              0.0000    1.0000    0.0000
       0.0000    0.0000    2.9558              0.0000    0.0000    1.0000
 
   Reciprocal Space Mesh
   ---------------------
   Large Mesh
     Global(ngm_g)    MinLocal       MaxLocal      Average
          81446          40723          40723       40723.00
   Smooth Mesh
     Global(ngms_g)   MinLocal       MaxLocal      Average
          28778          14387          14391       14389.00
   Wave function Mesh
     Global(ngw_g)    MinLocal       MaxLocal      Average
           3562           1779           1783        1781.00

   Small box Mesh
   ngb =         1716 not distributed to processors


   System geometry initialization
   ------------------------------
   ibrav =    8       cell parameters read from input file
 
   unit vectors of box grid cell
   in real space:                         in reciprocal space:
       2.9558    0.0000    0.0000              1.0000    0.0000    0.0000
       0.0000    2.9558    0.0000              0.0000    1.0000    0.0000
       0.0000    0.0000    2.9558              0.0000    0.0000    1.0000

   Matrix Multiplication Performances
   ortho mmul, time for parallel driver      =   0.00000 with    1 procs

   Constraints matrixes will be distributed block like on
   ortho sub-group =    1*   1 procs



   Pseudopotentials initialization
   -------------------------------
  nlinit  nh(is), ngb, is, kkbeta, lmaxq =           18        1716           1
         829           5
 
                        qqq 
  -0.0772  -0.0666   0.0000   0.0000   0.0000   0.0000
  -0.0666  -0.0419   0.0000   0.0000   0.0000   0.0000
   0.0000   0.0000  -0.0095  -0.0249   0.0000   0.0000
   0.0000   0.0000  -0.0249  -0.0561   0.0000   0.0000
   0.0000   0.0000   0.0000   0.0000   0.0059   0.0065
   0.0000   0.0000   0.0000   0.0000   0.0065   0.0070
 


   Common initialization

   Specie:     1
   1  indv=  1   ang. mom=  0
   2  indv=  2   ang. mom=  0
   3  indv=  3   ang. mom=  1
   4  indv=  3   ang. mom=  1
   5  indv=  3   ang. mom=  1
   6  indv=  4   ang. mom=  1
   7  indv=  4   ang. mom=  1
   8  indv=  4   ang. mom=  1
   9  indv=  5   ang. mom=  2
  10  indv=  5   ang. mom=  2
  11  indv=  5   ang. mom=  2
  12  indv=  5   ang. mom=  2
  13  indv=  5   ang. mom=  2
  14  indv=  6   ang. mom=  2
  15  indv=  6   ang. mom=  2
  16  indv=  6   ang. mom=  2
  17  indv=  6   ang. mom=  2
  18  indv=  6   ang. mom=  2
 
                        dion 
   0.2480   0.2226   0.0000   0.0000   0.0000   0.0000
   0.2226   0.5178   0.0000   0.0000   0.0000   0.0000
   0.0000   0.0000   0.0832   0.0571   0.0000   0.0000
   0.0000   0.0000   0.0571   0.1029   0.0000   0.0000
   0.0000   0.0000   0.0000   0.0000  -0.0224  -0.0221
   0.0000   0.0000   0.0000   0.0000  -0.0221  -0.0218

   Cell parameters from input file are used in electron mass preconditioning
   init_tpiba2=    0.34866975
 
   Short Legend and Physical Units in the Output
   ---------------------------------------------
   NFI    [int]          - step index
   EKINC  [HARTREE A.U.] - kinetic energy of the fictitious electronic dynamics
   TEMPH  [K]            - Temperature of the fictitious cell dynamics
   TEMP   [K]            - Ionic temperature
   ETOT   [HARTREE A.U.] - Scf total energy (Kohn-Sham hamiltonian)
   ENTHAL [HARTREE A.U.] - Enthalpy ( ETOT + P * V )
   ECONS  [HARTREE A.U.] - Enthalpy + kinetic energy of ions and cell
   ECONT  [HARTREE A.U.] - Constant of motion for the CP lagrangian
 


   Wave Initialization: random initial wave-functions
   Occupation number from init
   nbnd =    16
    2.00 2.00 2.00 2.00 2.00 2.00 2.00 2.00 2.00 2.00
    2.00 2.00 2.00 2.00 2.00 2.00

   formf: eself=   102.12922
   formf:     vps(g=0)=   0.0063764     rhops(g=0)=  -0.0033200
   formf:     vps(g=0)=   0.0061714     rhops(g=0)=  -0.0032485
   formf:     vps(g=0)=   0.0061714     rhops(g=0)=  -0.0032485
   formf:     vps(g=0)=   0.0061714     rhops(g=0)=  -0.0032485
   formf:     vps(g=0)=   0.0059723     rhops(g=0)=  -0.0031784
   formf: sum_g vps(g)=   2.4285170 sum_g rhops(g)=  -2.8750097
   Delta V(G=0):   0.020860Ry,    0.567639eV

   from rhoofr: total integrated electronic density
   in g-space =     32.000000   in r-space =    32.000000
     Total Electronic Pressure (GPa)     1049.96412      0
 
  nfi     ekinc              temph  tempp     etot                 enthal               econs                econt              vnhh    xnhh0   vnhp    xnhp0
      1    7.403316766515619    0.0    0.00      21.450335360478      21.450335360478      21.450335360478      28.853652126993   0.0000   0.0000   0.0000   0.0000
      2   20.715634743868392    0.0    0.00       4.491965575236       4.491965575236       4.491965575236      25.207600319105   0.0000   0.0000   0.0000   0.0000
      3   33.400086817177552    0.0    0.00     -14.678870999427     -14.678870999427     -14.678870999427      18.721215817751   0.0000   0.0000   0.0000   0.0000
      4   38.013797774168850    0.0    0.00     -26.933262242966     -26.933262242966     -26.933262242966      11.080535531203   0.0000   0.0000   0.0000   0.0000
      5   32.778966478191911    0.0    0.00     -28.360691891877     -28.360691891877     -28.360691891877       4.418274586315   0.0000   0.0000   0.0000   0.0000
      6   22.317166518566541    0.0    0.00     -22.522892996562     -22.522892996562     -22.522892996562      -0.205726477995   0.0000   0.0000   0.0000   0.0000
      7   13.452681911742481    0.0    0.00     -16.525964783301     -16.525964783301     -16.525964783301      -3.073282871558   0.0000   0.0000   0.0000   0.0000
      8   10.462157525329111    0.0    0.00     -15.763309796556     -15.763309796556     -15.763309796556      -5.301152271227   0.0000   0.0000   0.0000   0.0000
      9   13.070387292462474    0.0    0.00     -21.106000290521     -21.106000290521     -21.106000290521      -8.035612998058   0.0000   0.0000   0.0000   0.0000
     10   17.502818078429140    0.0    0.00     -29.208079022496     -29.208079022496     -29.208079022496     -11.705260944067   0.0000   0.0000   0.0000   0.0000
     11   19.452985162340443    0.0    0.00     -35.229209292029     -35.229209292029     -35.229209292029     -15.776224129688   0.0000   0.0000   0.0000   0.0000
     12   17.149324131136741    0.0    0.00     -36.457551623614     -36.457551623614     -36.457551623614     -19.308227492477   0.0000   0.0000   0.0000   0.0000
     13   12.291938846634833    0.0    0.00     -34.101170221734     -34.101170221734     -34.101170221734     -21.809231375099   0.0000   0.0000   0.0000   0.0000
     14    8.121134047385535    0.0    0.00     -31.621268686488     -31.621268686488     -31.621268686488     -23.500134639102   0.0000   0.0000   0.0000   0.0000
     15    6.645760088855752    0.0    0.00     -31.583705767829     -31.583705767829     -31.583705767829     -24.937945678973   0.0000   0.0000   0.0000   0.0000
     16    7.533019189557692    0.0    0.00     -34.090982604439     -34.090982604439     -34.090982604439     -26.557963414881   0.0000   0.0000   0.0000   0.0000
     17    9.000824640558067    0.0    0.00     -37.458311218475     -37.458311218475     -37.458311218475     -28.457486577917   0.0000   0.0000   0.0000   0.0000
     18    9.373697129168480    0.0    0.00     -39.798502263437     -39.798502263437     -39.798502263437     -30.424805134268   0.0000   0.0000   0.0000   0.0000
     19    8.104691971777939    0.0    0.00     -40.230106651381     -40.230106651381     -40.230106651381     -32.125414679603   0.0000   0.0000   0.0000   0.0000
     20    5.891484939969164    0.0    0.00     -39.243143289894     -39.243143289894     -39.243143289894     -33.351658349924   0.0000   0.0000   0.0000   0.0000
     21    4.020741187936835    0.0    0.00     -38.201057852065     -38.201057852065     -38.201057852065     -34.180316664128   0.0000   0.0000   0.0000   0.0000
     22    3.382467425732432    0.0    0.00     -38.273325506948     -38.273325506948     -38.273325506948     -34.890858081216   0.0000   0.0000   0.0000   0.0000
     23    3.859338860458402    0.0    0.00     -39.579774078542     -39.579774078542     -39.579774078542     -35.720435218084   0.0000   0.0000   0.0000   0.0000
     24    4.567129267663487    0.0    0.00     -41.261730041509     -41.261730041509     -41.261730041509     -36.694600773846   0.0000   0.0000   0.0000   0.0000
     25    4.670036742470682    0.0    0.00     -42.338334207174     -42.338334207174     -42.338334207174     -37.668297464703   0.0000   0.0000   0.0000   0.0000
     26    3.997716850690427    0.0    0.00     -42.486145441776     -42.486145441776     -42.486145441776     -38.488428591085   0.0000   0.0000   0.0000   0.0000
     27    2.996470364134841    0.0    0.00     -42.102200234239     -42.102200234239     -42.102200234239     -39.105729870104   0.0000   0.0000   0.0000   0.0000
     28    2.238345564065517    0.0    0.00     -41.813788858372     -41.813788858372     -41.813788858372     -39.575443294307   0.0000   0.0000   0.0000   0.0000
     29    1.998950204519731    0.0    0.00     -41.997429600979     -41.997429600979     -41.997429600979     -39.998479396459   0.0000   0.0000   0.0000   0.0000
     30    2.159668128364221    0.0    0.00     -42.615063257962     -42.615063257962     -42.615063257962     -40.455395129598   0.0000   0.0000   0.0000   0.0000
     31    2.371795792325708    0.0    0.00     -43.330467521442     -43.330467521442     -43.330467521442     -40.958671729117   0.0000   0.0000   0.0000   0.0000
     32    2.322441790042026    0.0    0.00     -43.773067613279     -43.773067613279     -43.773067613279     -41.450625823237   0.0000   0.0000   0.0000   0.0000
     33    1.946031154853727    0.0    0.00     -43.803205114259     -43.803205114259     -43.803205114259     -41.857173959405   0.0000   0.0000   0.0000   0.0000
     34    1.444088319472411    0.0    0.00     -43.597787511111     -43.597787511111     -43.597787511111     -42.153699191638   0.0000   0.0000   0.0000   0.0000
     35    1.095644450803618    0.0    0.00     -43.475827415946     -43.475827415946     -43.475827415946     -42.380182965143   0.0000   0.0000   0.0000   0.0000
     36    1.025946149543435    0.0    0.00     -43.623980780428     -43.623980780428     -43.623980780428     -42.598034630884   0.0000   0.0000   0.0000   0.0000
     37    1.137943266529498    0.0    0.00     -43.978356632330     -43.978356632330     -43.978356632330     -42.840413365801   0.0000   0.0000   0.0000   0.0000
     38    1.235218230786105    0.0    0.00     -44.334778900871     -44.334778900871     -44.334778900871     -43.099560670085   0.0000   0.0000   0.0000   0.0000
     39    1.187645355853659    0.0    0.00     -44.533948978526     -44.533948978526     -44.533948978526     -43.346303622672   0.0000   0.0000   0.0000   0.0000
     40    0.999623106870756    0.0    0.00     -44.554096975628     -44.554096975628     -44.554096975628     -43.554473868757   0.0000   0.0000   0.0000   0.0000
     41    0.768645311878027    0.0    0.00     -44.484266015402     -44.484266015402     -44.484266015402     -43.715620703524   0.0000   0.0000   0.0000   0.0000
     42    0.601243621001319    0.0    0.00     -44.443360492833     -44.443360492833     -44.443360492833     -43.842116871831   0.0000   0.0000   0.0000   0.0000
     43    0.544982568464548    0.0    0.00     -44.502568982744     -44.502568982744     -44.502568982744     -43.957586414280   0.0000   0.0000   0.0000   0.0000
     44    0.566944637436618    0.0    0.00     -44.645884220722     -44.645884220722     -44.645884220722     -44.078939583286   0.0000   0.0000   0.0000   0.0000
     45    0.588232015624759    0.0    0.00     -44.792899291381     -44.792899291381     -44.792899291381     -44.204667275756   0.0000   0.0000   0.0000   0.0000
     46    0.549654612131253    0.0    0.00     -44.870009067794     -44.870009067794     -44.870009067794     -44.320354455663   0.0000   0.0000   0.0000   0.0000
     47    0.454235809672681    0.0    0.00     -44.868596762342     -44.868596762342     -44.868596762342     -44.414360952669   0.0000   0.0000   0.0000   0.0000
     48    0.352222832488700    0.0    0.00     -44.839491544839     -44.839491544839     -44.839491544839     -44.487268712350   0.0000   0.0000   0.0000   0.0000
     49    0.290799940319642    0.0    0.00     -44.839397804408     -44.839397804408     -44.839397804408     -44.548597864089   0.0000   0.0000   0.0000   0.0000
     50    0.278874815180146    0.0    0.00     -44.886852704198     -44.886852704198     -44.886852704198     -44.607977889017   0.0000   0.0000   0.0000   0.0000
     51    0.290836369448335    0.0    0.00     -44.960346987326     -44.960346987326     -44.960346987326     -44.669510617878   0.0000   0.0000   0.0000   0.0000
     52    0.293266852151845    0.0    0.00     -45.024482788816     -45.024482788816     -45.024482788816     -44.731215936664   0.0000   0.0000   0.0000   0.0000
     53    0.268264730192686    0.0    0.00     -45.055895234781     -45.055895234781     -45.055895234781     -44.787630504588   0.0000   0.0000   0.0000   0.0000
     54    0.221122266700718    0.0    0.00     -45.055129661597     -45.055129661597     -45.055129661597     -44.834007394897   0.0000   0.0000   0.0000   0.0000
     55    0.172874323533253    0.0    0.00     -45.042906305590     -45.042906305590     -45.042906305590     -44.870031982057   0.0000   0.0000   0.0000   0.0000
     56    0.143798190579945    0.0    0.00     -45.043860401804     -45.043860401804     -45.043860401804     -44.900062211224   0.0000   0.0000   0.0000   0.0000
     57    0.138744426683648    0.0    0.00     -45.068163456370     -45.068163456370     -45.068163456370     -44.929419029686   0.0000   0.0000   0.0000   0.0000
     58    0.145474948118306    0.0    0.00     -45.105786907630     -45.105786907630     -45.105786907630     -44.960311959512   0.0000   0.0000   0.0000   0.0000
     59    0.146729055447806    0.0    0.00     -45.137870580962     -45.137870580962     -45.137870580962     -44.991141525514   0.0000   0.0000   0.0000   0.0000
     60    0.134190333140149    0.0    0.00     -45.153174767109     -45.153174767109     -45.153174767109     -45.018984433969   0.0000   0.0000   0.0000   0.0000
     61    0.112351167834531    0.0    0.00     -45.154582185772     -45.154582185772     -45.154582185772     -45.042231017938   0.0000   0.0000   0.0000   0.0000
     62    0.091734861007762    0.0    0.00     -45.153089280121     -45.153089280121     -45.153089280121     -45.061354419113   0.0000   0.0000   0.0000   0.0000
     63    0.079886204992827    0.0    0.00     -45.158008202610     -45.158008202610     -45.158008202610     -45.078121997617   0.0000   0.0000   0.0000   0.0000
     64    0.077169344070572    0.0    0.00     -45.171507941138     -45.171507941138     -45.171507941138     -45.094338597067   0.0000   0.0000   0.0000   0.0000
     65    0.078259044601191    0.0    0.00     -45.189061169205     -45.189061169205     -45.189061169205     -45.110802124603   0.0000   0.0000   0.0000   0.0000
     66    0.076665554224044    0.0    0.00     -45.203612247499     -45.203612247499     -45.203612247499     -45.126946693275   0.0000   0.0000   0.0000   0.0000
     67    0.069196464529503    0.0    0.00     -45.210666272433     -45.210666272433     -45.210666272433     -45.141469807904   0.0000   0.0000   0.0000   0.0000
     68    0.057709086231340    0.0    0.00     -45.211214213298     -45.211214213298     -45.211214213298     -45.153505127067   0.0000   0.0000   0.0000   0.0000
     69    0.047049248528035    0.0    0.00     -45.210360815141     -45.210360815141     -45.210360815141     -45.163311566613   0.0000   0.0000   0.0000   0.0000
     70    0.040962104739926    0.0    0.00     -45.212889920156     -45.212889920156     -45.212889920156     -45.171927815416   0.0000   0.0000   0.0000   0.0000
     71    0.039481845245285    0.0    0.00     -45.219768832594     -45.219768832594     -45.219768832594     -45.180286987349   0.0000   0.0000   0.0000   0.0000
     72    0.039685692936703    0.0    0.00     -45.228339601712     -45.228339601712     -45.228339601712     -45.188653908775   0.0000   0.0000   0.0000   0.0000
     73    0.038482428204527    0.0    0.00     -45.235186174082     -45.235186174082     -45.235186174082     -45.196703745878   0.0000   0.0000   0.0000   0.0000
     74    0.034768032213434    0.0    0.00     -45.238716572720     -45.238716572720     -45.238716572720     -45.203948540506   0.0000   0.0000   0.0000   0.0000
     75    0.029601575700145    0.0    0.00     -45.239722149188     -45.239722149188     -45.239722149188     -45.210120573488   0.0000   0.0000   0.0000   0.0000
     76    0.024937709989195    0.0    0.00     -45.240265419421     -45.240265419421     -45.240265419421     -45.215327709432   0.0000   0.0000   0.0000   0.0000
     77    0.022153328442418    0.0    0.00     -45.242110338838     -45.242110338838     -45.242110338838     -45.219957010395   0.0000   0.0000   0.0000   0.0000
     78    0.021271276026340    0.0    0.00     -45.245677963846     -45.245677963846     -45.245677963846     -45.224406687819   0.0000   0.0000   0.0000   0.0000
     79    0.021188242696880    0.0    0.00     -45.250024341164     -45.250024341164     -45.250024341164     -45.228836098467   0.0000   0.0000   0.0000   0.0000
     80    0.020624734777540    0.0    0.00     -45.253750033143     -45.253750033143     -45.253750033143     -45.233125298366   0.0000   0.0000   0.0000   0.0000
     81    0.019059209616171    0.0    0.00     -45.256114752689     -45.256114752689     -45.256114752689     -45.237055543072   0.0000   0.0000   0.0000   0.0000
     82    0.016951438446545    0.0    0.00     -45.257479530566     -45.257479530566     -45.257479530566     -45.240528092120   0.0000   0.0000   0.0000   0.0000
     83    0.015184224420934    0.0    0.00     -45.258820876754     -45.258820876754     -45.258820876754     -45.243636652333   0.0000   0.0000   0.0000   0.0000
     84    0.014299138568060    0.0    0.00     -45.260872396549     -45.260872396549     -45.260872396549     -45.246573257981   0.0000   0.0000   0.0000   0.0000
     85    0.014161070619388    0.0    0.00     -45.263646294815     -45.263646294815     -45.263646294815     -45.249485224195   0.0000   0.0000   0.0000   0.0000
     86    0.014200158528360    0.0    0.00     -45.266599786652     -45.266599786652     -45.266599786652     -45.252399628124   0.0000   0.0000   0.0000   0.0000
     87    0.013900940591520    0.0    0.00     -45.269145608897     -45.269145608897     -45.269145608897     -45.255244668305   0.0000   0.0000   0.0000   0.0000
     88    0.013129598315553    0.0    0.00     -45.271055416916     -45.271055416916     -45.271055416916     -45.257925818600   0.0000   0.0000   0.0000   0.0000
     89    0.012130431755516    0.0    0.00     -45.272528262061     -45.272528262061     -45.272528262061     -45.260397830306   0.0000   0.0000   0.0000   0.0000
     90    0.011285096544042    0.0    0.00     -45.273977574640     -45.273977574640     -45.273977574640     -45.262692478096   0.0000   0.0000   0.0000   0.0000
     91    0.010839039925212    0.0    0.00     -45.275731869505     -45.275731869505     -45.275731869505     -45.264892829580   0.0000   0.0000   0.0000   0.0000
     92    0.010766935399821    0.0    0.00     -45.277843674399     -45.277843674399     -45.277843674399     -45.267076738999   0.0000   0.0000   0.0000   0.0000
     93    0.010838247707353    0.0    0.00     -45.280110122155     -45.280110122155     -45.280110122155     -45.269271874448   0.0000   0.0000   0.0000   0.0000
     94    0.010811741489925    0.0    0.00     -45.282266270969     -45.282266270969     -45.282266270969     -45.271454529479   0.0000   0.0000   0.0000   0.0000
     95    0.010603612450037    0.0    0.00     -45.284190528069     -45.284190528069     -45.284190528069     -45.273586915619   0.0000   0.0000   0.0000   0.0000
     96    0.010306525010267    0.0    0.00     -45.285961980751     -45.285961980751     -45.285961980751     -45.275655455740   0.0000   0.0000   0.0000   0.0000
     97    0.010070351682532    0.0    0.00     -45.287748462921     -45.287748462921     -45.287748462921     -45.277678111239   0.0000   0.0000   0.0000   0.0000
     98    0.009968779628614    0.0    0.00     -45.289652263391     -45.289652263391     -45.289652263391     -45.279683483762   0.0000   0.0000   0.0000   0.0000
     99    0.009962292670596    0.0    0.00     -45.291650472299     -45.291650472299     -45.291650472299     -45.281688179628   0.0000   0.0000   0.0000   0.0000

 * Physical Quantities at step:   100

   from rhoofr: total integrated electronic density
   in g-space =     32.000000   in r-space =    32.000000
     Total Electronic Pressure (GPa)        0.16763    100
     Pressure of Nuclei (GPa)             0.00000    100
     Pressure Total (GPa)            -1.35946    100


                total energy =      -45.29364926960 Hartree a.u.
              kinetic energy =       12.29499 Hartree a.u.
        electrostatic energy =      -41.13366 Hartree a.u.
                         esr =        0.00000 Hartree a.u.
                       eself =      102.12922 Hartree a.u.
      pseudopotential energy =        3.08767 Hartree a.u.
  n-l pseudopotential energy =        4.91025 Hartree a.u.
 exchange-correlation energy =      -24.45290 Hartree a.u.
           average potential =        0.00000 Hartree a.u.



   Eigenvalues (eV), kp =   1 , spin =  1

   -6.58   -2.87   -2.87   -2.83   -2.79   -2.73   -2.73    2.04    2.06    2.08
    2.11    2.13    2.15    4.73    4.75    5.07
 
 
   CELL_PARAMETERS
   10.64076206    0.00000000    0.00000000
    0.00000000   10.64076206    0.00000000
    0.00000000    0.00000000   10.64076206

   System Density [g/cm^3] :              2.0898178971


   System Volume [A.U.^3] :           1204.8089816234


   Center of mass square displacement (a.u.):   0.000000

   Total stress (GPa)
        1.88468200        -0.11994031        -0.64856318
       -0.11994031        -4.15978655         0.02284078
       -0.64852341         0.02286830        -1.80328080
   ATOMIC_POSITIONS
   Si      0.00000000000000E+00     0.00000000000000E+00     0.00000000000000E+00
   Si      0.00000000000000E+00     0.53203810323000E+01     0.53203810323000E+01
   Si      0.53203810323000E+01     0.53203810323000E+01     0.00000000000000E+00
   Si      0.53203810323000E+01     0.00000000000000E+00     0.53203810323000E+01
   Si      0.26601905161500E+01     0.26601905161500E+01     0.26601905161500E+01
   Si      0.26601905161500E+01     0.79805715484500E+01     0.79805715484500E+01
   Si      0.79805715484500E+01     0.79805715484500E+01     0.26601905161500E+01
   Si      0.79805715484500E+01     0.26601905161500E+01     0.79805715484500E+01
 
   ATOMIC_VELOCITIES
   Si      0.00000000000000E+00     0.00000000000000E+00     0.00000000000000E+00
   Si      0.00000000000000E+00     0.00000000000000E+00     0.00000000000000E+00
   Si      0.00000000000000E+00     0.00000000000000E+00     0.00000000000000E+00
   Si      0.00000000000000E+00     0.00000000000000E+00     0.00000000000000E+00
   Si      0.00000000000000E+00     0.00000000000000E+00     0.00000000000000E+00
   Si      0.00000000000000E+00     0.00000000000000E+00     0.00000000000000E+00
   Si      0.00000000000000E+00     0.00000000000000E+00     0.00000000000000E+00
   Si      0.00000000000000E+00     0.00000000000000E+00     0.00000000000000E+00
 
   Forces acting on atoms (au):
   Si      0.18555134042525E-01     0.22314693582072E-02    -0.16341188340630E-01
   Si      0.75573598203474E-02     0.19991776458565E-01     0.56528273057561E-02
   Si     -0.12679405154692E-02     0.26122753213621E-01     0.41155833239241E-02
   Si      0.18274786940763E-01     0.11335032110378E-01    -0.24417820382426E-01
   Si     -0.28645375899754E-01    -0.10251528499518E-01     0.50865322612910E-02
   Si      0.11916300943282E-02    -0.14839806921299E-01    -0.12012526143909E-02
   Si      0.10092171414813E-02    -0.19931295776400E-01    -0.33667672902359E-02
   Si     -0.23643903118849E-01    -0.21654799738800E-01     0.19997873716517E-01
 


   Partial temperatures (for each ionic specie) 
   Species  Temp (K)   Mean Square Displacement (a.u.)
        1   0.00E+00     0.0000E+00
 
  nfi     ekinc              temph  tempp     etot                 enthal               econs                econt              vnhh    xnhh0   vnhp    xnhp0
    100    0.009958713583308    0.0    0.00     -45.293649269595     -45.293649269595     -45.293649269595     -45.283690556012   0.0000   0.0000   0.0000   0.0000

   writing restart file (with schema): ./outdir/si_50.save/
     restart      :      0.03s CPU      0.03s WALL (       1 calls)
    101    0.009893144370825    0.0    0.00     -45.295571240015     -45.295571240015     -45.295571240015     -45.285678095644   0.0000   0.0000   0.0000   0.0000
    102    0.009763970146297    0.0    0.00     -45.297402273577     -45.297402273577     -45.297402273577     -45.287638303431   0.0000   0.0000   0.0000   0.0000
    103    0.009618591411491    0.0    0.00     -45.299186233881     -45.299186233881     -45.299186233881     -45.289567642469   0.0000   0.0000   0.0000   0.0000
    104    0.009512676234955    0.0    0.00     -45.300987518389     -45.300987518389     -45.300987518389     -45.291474842154   0.0000   0.0000   0.0000   0.0000
    105    0.009468454863133    0.0    0.00     -45.302843120248     -45.302843120248     -45.302843120248     -45.293374665385   0.0000   0.0000   0.0000   0.0000
    106    0.009457199764694    0.0    0.00     -45.304732460229     -45.304732460229     -45.304732460229     -45.295275260464   0.0000   0.0000   0.0000   0.0000
    107    0.009421428415160    0.0    0.00     -45.306592195067     -45.306592195067     -45.306592195067     -45.297170766652   0.0000   0.0000   0.0000   0.0000
    108    0.009320448895663    0.0    0.00     -45.308367032627     -45.308367032627     -45.308367032627     -45.299046583731   0.0000   0.0000   0.0000   0.0000
    109    0.009157720821101    0.0    0.00     -45.310048413988     -45.310048413988     -45.310048413988     -45.300890693167   0.0000   0.0000   0.0000   0.0000
    110    0.008966953594535    0.0    0.00     -45.311666046567     -45.311666046567     -45.311666046567     -45.302699092972   0.0000   0.0000   0.0000   0.0000
    111    0.008777326725876    0.0    0.00     -45.313249940234     -45.313249940234     -45.313249940234     -45.304472613508   0.0000   0.0000   0.0000   0.0000
    112    0.008593495791447    0.0    0.00     -45.314805201766     -45.314805201766     -45.314805201766     -45.306211705975   0.0000   0.0000   0.0000   0.0000
    113    0.008401032083316    0.0    0.00     -45.316315188446     -45.316315188446     -45.316315188446     -45.307914156363   0.0000   0.0000   0.0000   0.0000
    114    0.008182135405427    0.0    0.00     -45.317757008484     -45.317757008484     -45.317757008484     -45.309574873079   0.0000   0.0000   0.0000   0.0000
    115    0.007927381308018    0.0    0.00     -45.319113902366     -45.319113902366     -45.319113902366     -45.311186521058   0.0000   0.0000   0.0000   0.0000
    116    0.007640874819071    0.0    0.00     -45.320382829813     -45.320382829813     -45.320382829813     -45.312741954994   0.0000   0.0000   0.0000   0.0000
    117    0.007338086502616    0.0    0.00     -45.321575672054     -45.321575672054     -45.321575672054     -45.314237585551   0.0000   0.0000   0.0000   0.0000
    118    0.007035153669062    0.0    0.00     -45.322709124649     -45.322709124649     -45.322709124649     -45.315673970980   0.0000   0.0000   0.0000   0.0000
    119    0.006736542493445    0.0    0.00     -45.323788963237     -45.323788963237     -45.323788963237     -45.317052420743   0.0000   0.0000   0.0000   0.0000
    120    0.006433416174134    0.0    0.00     -45.324804900997     -45.324804900997     -45.324804900997     -45.318371484823   0.0000   0.0000   0.0000   0.0000
    121    0.006114755612768    0.0    0.00     -45.325741921735     -45.325741921735     -45.325741921735     -45.319627166122   0.0000   0.0000   0.0000   0.0000
    122    0.005778868406480    0.0    0.00     -45.326594606518     -45.326594606518     -45.326594606518     -45.320815738112   0.0000   0.0000   0.0000   0.0000
    123    0.005434131202428    0.0    0.00     -45.327369701174     -45.327369701174     -45.327369701174     -45.321935569972   0.0000   0.0000   0.0000   0.0000
    124    0.005091521587493    0.0    0.00     -45.328078441394     -45.328078441394     -45.328078441394     -45.322986919806   0.0000   0.0000   0.0000   0.0000
    125    0.004758302268156    0.0    0.00     -45.328729518132     -45.328729518132     -45.328729518132     -45.323971215864   0.0000   0.0000   0.0000   0.0000
    126    0.004436538201901    0.0    0.00     -45.329327099691     -45.329327099691     -45.329327099691     -45.324890561489   0.0000   0.0000   0.0000   0.0000
    127    0.004124184981997    0.0    0.00     -45.329871097233     -45.329871097233     -45.329871097233     -45.325746912251   0.0000   0.0000   0.0000   0.0000
    128    0.003817450537187    0.0    0.00     -45.330358683590     -45.330358683590     -45.330358683590     -45.326541233052   0.0000   0.0000   0.0000   0.0000
    129    0.003514571964843    0.0    0.00     -45.330788419353     -45.330788419353     -45.330788419353     -45.327273847388   0.0000   0.0000   0.0000   0.0000
    130    0.003218565971035    0.0    0.00     -45.331164436028     -45.331164436028     -45.331164436028     -45.327945870057   0.0000   0.0000   0.0000   0.0000
    131    0.002935599389422    0.0    0.00     -45.331495622198     -45.331495622198     -45.331495622198     -45.328560022809   0.0000   0.0000   0.0000   0.0000
    132    0.002670227660715    0.0    0.00     -45.331790164799     -45.331790164799     -45.331790164799     -45.329119937138   0.0000   0.0000   0.0000   0.0000
    133    0.002422645191285    0.0    0.00     -45.332051654009     -45.332051654009     -45.332051654009     -45.329629008818   0.0000   0.0000   0.0000   0.0000
    134    0.002190320833157    0.0    0.00     -45.332280397627     -45.332280397627     -45.332280397627     -45.330090076794   0.0000   0.0000   0.0000   0.0000
    135    0.001971153864480    0.0    0.00     -45.332476929431     -45.332476929431     -45.332476929431     -45.330505775567   0.0000   0.0000   0.0000   0.0000
    136    0.001764764030236    0.0    0.00     -45.332643528015     -45.332643528015     -45.332643528015     -45.330878763985   0.0000   0.0000   0.0000   0.0000
    137    0.001571948738522    0.0    0.00     -45.332783690984     -45.332783690984     -45.332783690984     -45.331211742246   0.0000   0.0000   0.0000   0.0000
    138    0.001393930237587    0.0    0.00     -45.332901532803     -45.332901532803     -45.332901532803     -45.331507602565   0.0000   0.0000   0.0000   0.0000
    139    0.001231691679588    0.0    0.00     -45.333001256939     -45.333001256939     -45.333001256939     -45.331769565260   0.0000   0.0000   0.0000   0.0000
    140    0.001085088023295    0.0    0.00     -45.333085996922     -45.333085996922     -45.333085996922     -45.332000908899   0.0000   0.0000   0.0000   0.0000
    141    0.000952497828208    0.0    0.00     -45.333156990974     -45.333156990974     -45.333156990974     -45.332204493146   0.0000   0.0000   0.0000   0.0000
    142    0.000831821997944    0.0    0.00     -45.333214484009     -45.333214484009     -45.333214484009     -45.332382662011   0.0000   0.0000   0.0000   0.0000
    143    0.000721919548147    0.0    0.00     -45.333259516951     -45.333259516951     -45.333259516951     -45.332537597402   0.0000   0.0000   0.0000   0.0000
    144    0.000622852702199    0.0    0.00     -45.333294456084     -45.333294456084     -45.333294456084     -45.332671603382   0.0000   0.0000   0.0000   0.0000
    145    0.000534875579441    0.0    0.00     -45.333321895902     -45.333321895902     -45.333321895902     -45.332787020323   0.0000   0.0000   0.0000   0.0000
    146    0.000457570617933    0.0    0.00     -45.333343593218     -45.333343593218     -45.333343593218     -45.332886022600   0.0000   0.0000   0.0000   0.0000
    147    0.000389924772595    0.0    0.00     -45.333360503067     -45.333360503067     -45.333360503067     -45.332970578294   0.0000   0.0000   0.0000   0.0000
    148    0.000330788667046    0.0    0.00     -45.333373274562     -45.333373274562     -45.333373274562     -45.333042485895   0.0000   0.0000   0.0000   0.0000
    149    0.000279085490940    0.0    0.00     -45.333382420784     -45.333382420784     -45.333382420784     -45.333103335293   0.0000   0.0000   0.0000   0.0000
    150    0.000233894217379    0.0    0.00     -45.333388374498     -45.333388374498     -45.333388374498     -45.333154480281   0.0000   0.0000   0.0000   0.0000
    151    0.000194617845961    0.0    0.00     -45.333391758711     -45.333391758711     -45.333391758711     -45.333197140865   0.0000   0.0000   0.0000   0.0000
    152    0.000160976571330    0.0    0.00     -45.333393498811     -45.333393498811     -45.333393498811     -45.333232522240   0.0000   0.0000   0.0000   0.0000
    153    0.000132654393580    0.0    0.00     -45.333394436907     -45.333394436907     -45.333394436907     -45.333261782513   0.0000   0.0000   0.0000   0.0000
    154    0.000108992905822    0.0    0.00     -45.333394901216     -45.333394901216     -45.333394901216     -45.333285908310   0.0000   0.0000   0.0000   0.0000
    155    0.000089133800797    0.0    0.00     -45.333394816432     -45.333394816432     -45.333394816432     -45.333305682632   0.0000   0.0000   0.0000   0.0000
    156    0.000072393676336    0.0    0.00     -45.333394162599     -45.333394162599     -45.333394162599     -45.333321768923   0.0000   0.0000   0.0000   0.0000
    157    0.000058390305148    0.0    0.00     -45.333393167450     -45.333393167450     -45.333393167450     -45.333334777144   0.0000   0.0000   0.0000   0.0000
    158    0.000046868367427    0.0    0.00     -45.333392120167     -45.333392120167     -45.333392120167     -45.333345251800   0.0000   0.0000   0.0000   0.0000
    159    0.000037546981901    0.0    0.00     -45.333391201808     -45.333391201808     -45.333391201808     -45.333353654826   0.0000   0.0000   0.0000   0.0000
    160    0.000030131825709    0.0    0.00     -45.333390521655     -45.333390521655     -45.333390521655     -45.333360389829   0.0000   0.0000   0.0000   0.0000
    161    0.000024344174210    0.0    0.00     -45.333390162940     -45.333390162940     -45.333390162940     -45.333365818765   0.0000   0.0000   0.0000   0.0000
    162    0.000019887712584    0.0    0.00     -45.333390126751     -45.333390126751     -45.333390126751     -45.333370239039   0.0000   0.0000   0.0000   0.0000
    163    0.000016459563333    0.0    0.00     -45.333390328768     -45.333390328768     -45.333390328768     -45.333373869205   0.0000   0.0000   0.0000   0.0000
    164    0.000013839540450    0.0    0.00     -45.333390720826     -45.333390720826     -45.333390720826     -45.333376881285   0.0000   0.0000   0.0000   0.0000
    165    0.000011923934269    0.0    0.00     -45.333391362682     -45.333391362682     -45.333391362682     -45.333379438748   0.0000   0.0000   0.0000   0.0000
    166    0.000010636496464    0.0    0.00     -45.333392327872     -45.333392327872     -45.333392327872     -45.333381691376   0.0000   0.0000   0.0000   0.0000
    167    0.000009840010813    0.0    0.00     -45.333393587991     -45.333393587991     -45.333393587991     -45.333383747981   0.0000   0.0000   0.0000   0.0000
    168    0.000009364471048    0.0    0.00     -45.333395039212     -45.333395039212     -45.333395039212     -45.333385674741   0.0000   0.0000   0.0000   0.0000
    169    0.000009089862026    0.0    0.00     -45.333396608744     -45.333396608744     -45.333396608744     -45.333387518882   0.0000   0.0000   0.0000   0.0000
    170    0.000008964630891    0.0    0.00     -45.333398286582     -45.333398286582     -45.333398286582     -45.333389321952   0.0000   0.0000   0.0000   0.0000
    171    0.000008961568724    0.0    0.00     -45.333400076349     -45.333400076349     -45.333400076349     -45.333391114780   0.0000   0.0000   0.0000   0.0000
    172    0.000009050580813    0.0    0.00     -45.333401966884     -45.333401966884     -45.333401966884     -45.333392916303   0.0000   0.0000   0.0000   0.0000
    173    0.000009204858544    0.0    0.00     -45.333403947240     -45.333403947240     -45.333403947240     -45.333394742382   0.0000   0.0000   0.0000   0.0000
    174    0.000009397492273    0.0    0.00     -45.333406004878     -45.333406004878     -45.333406004878     -45.333396607386   0.0000   0.0000   0.0000   0.0000
    175    0.000009585308051    0.0    0.00     -45.333408099606     -45.333408099606     -45.333408099606     -45.333398514298   0.0000   0.0000   0.0000   0.0000
    176    0.000009718381356    0.0    0.00     -45.333410169220     -45.333410169220     -45.333410169220     -45.333400450838   0.0000   0.0000   0.0000   0.0000
    177    0.000009773734622    0.0    0.00     -45.333412174006     -45.333412174006     -45.333412174006     -45.333402400271   0.0000   0.0000   0.0000   0.0000
    178    0.000009765698056    0.0    0.00     -45.333414118084     -45.333414118084     -45.333414118084     -45.333404352386   0.0000   0.0000   0.0000   0.0000
    179    0.000009717188023    0.0    0.00     -45.333416018917     -45.333416018917     -45.333416018917     -45.333406301729   0.0000   0.0000   0.0000   0.0000
    180    0.000009631805842    0.0    0.00     -45.333417872027     -45.333417872027     -45.333417872027     -45.333408240222   0.0000   0.0000   0.0000   0.0000
    181    0.000009498132308    0.0    0.00     -45.333419654370     -45.333419654370     -45.333419654370     -45.333410156238   0.0000   0.0000   0.0000   0.0000
    182    0.000009308535172    0.0    0.00     -45.333421347081     -45.333421347081     -45.333421347081     -45.333412038546   0.0000   0.0000   0.0000   0.0000
    183    0.000009064576758    0.0    0.00     -45.333422941711     -45.333422941711     -45.333422941711     -45.333413877135   0.0000   0.0000   0.0000   0.0000
    184    0.000008771858933    0.0    0.00     -45.333424433350     -45.333424433350     -45.333424433350     -45.333415661491   0.0000   0.0000   0.0000   0.0000
    185    0.000008439663574    0.0    0.00     -45.333425821588     -45.333425821588     -45.333425821588     -45.333417381925   0.0000   0.0000   0.0000   0.0000
    186    0.000008082482916    0.0    0.00     -45.333427115371     -45.333427115371     -45.333427115371     -45.333419032888   0.0000   0.0000   0.0000   0.0000
    187    0.000007713183724    0.0    0.00     -45.333428325736     -45.333428325736     -45.333428325736     -45.333420612552   0.0000   0.0000   0.0000   0.0000
    188    0.000007334175629    0.0    0.00     -45.333429452914     -45.333429452914     -45.333429452914     -45.333422118738   0.0000   0.0000   0.0000   0.0000
    189    0.000006940272876    0.0    0.00     -45.333430487350     -45.333430487350     -45.333430487350     -45.333423547077   0.0000   0.0000   0.0000   0.0000
    190    0.000006530329680    0.0    0.00     -45.333431423715     -45.333431423715     -45.333431423715     -45.333424893385   0.0000   0.0000   0.0000   0.0000
    191    0.000006112261895    0.0    0.00     -45.333432268373     -45.333432268373     -45.333432268373     -45.333426156111   0.0000   0.0000   0.0000   0.0000
    192    0.000005697034564    0.0    0.00     -45.333433032898     -45.333433032898     -45.333433032898     -45.333427335863   0.0000   0.0000   0.0000   0.0000
    193    0.000005291887732    0.0    0.00     -45.333433725880     -45.333433725880     -45.333433725880     -45.333428433992   0.0000   0.0000   0.0000   0.0000
    194    0.000004899963125    0.0    0.00     -45.333434352458     -45.333434352458     -45.333434352458     -45.333429452495   0.0000   0.0000   0.0000   0.0000
    195    0.000004522431463    0.0    0.00     -45.333434916681     -45.333434916681     -45.333434916681     -45.333430394250   0.0000   0.0000   0.0000   0.0000
    196    0.000004158753753    0.0    0.00     -45.333435420916     -45.333435420916     -45.333435420916     -45.333431262162   0.0000   0.0000   0.0000   0.0000
    197    0.000003807277397    0.0    0.00     -45.333435865626     -45.333435865626     -45.333435865626     -45.333432058349   0.0000   0.0000   0.0000   0.0000
    198    0.000003468122476    0.0    0.00     -45.333436252945     -45.333436252945     -45.333436252945     -45.333432784822   0.0000   0.0000   0.0000   0.0000
    199    0.000003144826434    0.0    0.00     -45.333436589564     -45.333436589564     -45.333436589564     -45.333433444738   0.0000   0.0000   0.0000   0.0000

 * Physical Quantities at step:   200

   from rhoofr: total integrated electronic density
   in g-space =     32.000000   in r-space =    32.000000
     Total Electronic Pressure (GPa)        1.63820    200
     Pressure of Nuclei (GPa)             0.00000    200
     Pressure Total (GPa)             0.26246    200


                total energy =      -45.33343688414 Hartree a.u.
              kinetic energy =       12.47668 Hartree a.u.
        electrostatic energy =      -41.31446 Hartree a.u.
                         esr =        0.00000 Hartree a.u.
                       eself =      102.12922 Hartree a.u.
      pseudopotential energy =        3.12722 Hartree a.u.
  n-l pseudopotential energy =        4.92044 Hartree a.u.
 exchange-correlation energy =      -24.54331 Hartree a.u.
           average potential =        0.00000 Hartree a.u.



   Eigenvalues (eV), kp =   1 , spin =  1

   -6.44   -2.65   -2.65   -2.65   -2.65   -2.65   -2.65    2.23    2.23    2.23
    2.23    2.23    2.23    4.86    4.86    4.86
 
 
   CELL_PARAMETERS
   10.64076206    0.00000000    0.00000000
    0.00000000   10.64076206    0.00000000
    0.00000000    0.00000000   10.64076206

   System Density [g/cm^3] :              2.0898178971


   System Volume [A.U.^3] :           1204.8089816234


   Center of mass square displacement (a.u.):   0.000000

   Total stress (GPa)
        0.26282844        -0.00086545        -0.00061060
       -0.00086545         0.26215103        -0.00093888
       -0.00061059        -0.00093888         0.26238774
   ATOMIC_POSITIONS
   Si      0.00000000000000E+00     0.00000000000000E+00     0.00000000000000E+00
   Si      0.00000000000000E+00     0.53203810323000E+01     0.53203810323000E+01
   Si      0.53203810323000E+01     0.53203810323000E+01     0.00000000000000E+00
   Si      0.53203810323000E+01     0.00000000000000E+00     0.53203810323000E+01
   Si      0.26601905161500E+01     0.26601905161500E+01     0.26601905161500E+01
   Si      0.26601905161500E+01     0.79805715484500E+01     0.79805715484500E+01
   Si      0.79805715484500E+01     0.79805715484500E+01     0.26601905161500E+01
   Si      0.79805715484500E+01     0.26601905161500E+01     0.79805715484500E+01
 
   ATOMIC_VELOCITIES
   Si      0.00000000000000E+00     0.00000000000000E+00     0.00000000000000E+00
   Si      0.00000000000000E+00     0.00000000000000E+00     0.00000000000000E+00
   Si      0.00000000000000E+00     0.00000000000000E+00     0.00000000000000E+00
   Si      0.00000000000000E+00     0.00000000000000E+00     0.00000000000000E+00
   Si      0.00000000000000E+00     0.00000000000000E+00     0.00000000000000E+00
   Si      0.00000000000000E+00     0.00000000000000E+00     0.00000000000000E+00
   Si      0.00000000000000E+00     0.00000000000000E+00     0.00000000000000E+00
   Si      0.00000000000000E+00     0.00000000000000E+00     0.00000000000000E+00
 
   Forces acting on atoms (au):
   Si     -0.11604121568468E-02    -0.11488663313863E-02    -0.98360208934597E-03
   Si     -0.10013573418014E-02    -0.99195552454588E-03    -0.12737023824938E-02
   Si     -0.10476777616376E-02    -0.10589509973487E-02    -0.11937792846744E-02
   Si     -0.11748377433129E-02    -0.11772448002700E-02    -0.93935488987250E-03
   Si     -0.98384877570493E-03    -0.10990120874844E-02    -0.11188933663412E-02
   Si     -0.12333140265298E-02    -0.11332237814361E-02    -0.10480082185923E-02
   Si     -0.12164034821437E-02    -0.10958059919244E-02    -0.10270050606684E-02
   Si     -0.94826625918847E-03    -0.10708550203992E-02    -0.12207008879451E-02
 


   Partial temperatures (for each ionic specie) 
   Species  Temp (K)   Mean Square Displacement (a.u.)
        1   0.00E+00     0.0000E+00
 
  nfi     ekinc              temph  tempp     etot                 enthal               econs                econt              vnhh    xnhh0   vnhp    xnhp0
    200    0.000002841764839    0.0    0.00     -45.333436884142     -45.333436884142     -45.333436884142     -45.333434042377   0.0000   0.0000   0.0000   0.0000

   writing restart file (with schema): ./outdir/si_50.save/
     restart      :      0.05s CPU      0.06s WALL (       2 calls)
    201    0.000002560495763    0.0    0.00     -45.333437142583     -45.333437142583     -45.333437142583     -45.333434582087   0.0000   0.0000   0.0000   0.0000
    202    0.000002299538087    0.0    0.00     -45.333437367222     -45.333437367222     -45.333437367222     -45.333435067684   0.0000   0.0000   0.0000   0.0000
    203    0.000002056918420    0.0    0.00     -45.333437559694     -45.333437559694     -45.333437559694     -45.333435502776   0.0000   0.0000   0.0000   0.0000
    204    0.000001831717953    0.0    0.00     -45.333437722737     -45.333437722737     -45.333437722737     -45.333435891019   0.0000   0.0000   0.0000   0.0000
    205    0.000001623628990    0.0    0.00     -45.333437859576     -45.333437859576     -45.333437859576     -45.333436235947   0.0000   0.0000   0.0000   0.0000
    206    0.000001432429446    0.0    0.00     -45.333437973326     -45.333437973326     -45.333437973326     -45.333436540896   0.0000   0.0000   0.0000   0.0000
    207    0.000001258124066    0.0    0.00     -45.333438067396     -45.333438067396     -45.333438067396     -45.333436809272   0.0000   0.0000   0.0000   0.0000
    208    0.000001100675758    0.0    0.00     -45.333438145303     -45.333438145303     -45.333438145303     -45.333437044627   0.0000   0.0000   0.0000   0.0000
    209    0.000000959200706    0.0    0.00     -45.333438209510     -45.333438209510     -45.333438209510     -45.333437250309   0.0000   0.0000   0.0000   0.0000
    210    0.000000831935595    0.0    0.00     -45.333438261105     -45.333438261105     -45.333438261105     -45.333437429170   0.0000   0.0000   0.0000   0.0000
    211    0.000000717286128    0.0    0.00     -45.333438301015     -45.333438301015     -45.333438301015     -45.333437583729   0.0000   0.0000   0.0000   0.0000
    212    0.000000614574085    0.0    0.00     -45.333438331060     -45.333438331060     -45.333438331060     -45.333437716486   0.0000   0.0000   0.0000   0.0000
    213    0.000000523597471    0.0    0.00     -45.333438353537     -45.333438353537     -45.333438353537     -45.333437829940   0.0000   0.0000   0.0000   0.0000
    214    0.000000443833082    0.0    0.00     -45.333438370245     -45.333438370245     -45.333438370245     -45.333437926412   0.0000   0.0000   0.0000   0.0000
    215    0.000000374308872    0.0    0.00     -45.333438382306     -45.333438382306     -45.333438382306     -45.333438007997   0.0000   0.0000   0.0000   0.0000
    216    0.000000313950633    0.0    0.00     -45.333438390574     -45.333438390574     -45.333438390574     -45.333438076624   0.0000   0.0000   0.0000   0.0000
    217    0.000000261731811    0.0    0.00     -45.333438395778     -45.333438395778     -45.333438395778     -45.333438134046   0.0000   0.0000   0.0000   0.0000
    218    0.000000216638489    0.0    0.00     -45.333438398402     -45.333438398402     -45.333438398402     -45.333438181764   0.0000   0.0000   0.0000   0.0000
    219    0.000000177803632    0.0    0.00     -45.333438398868     -45.333438398868     -45.333438398868     -45.333438221065   0.0000   0.0000   0.0000   0.0000
    220    0.000000144679722    0.0    0.00     -45.333438397829     -45.333438397829     -45.333438397829     -45.333438253150   0.0000   0.0000   0.0000   0.0000
    221    0.000000116894838    0.0    0.00     -45.333438396072     -45.333438396072     -45.333438396072     -45.333438279177   0.0000   0.0000   0.0000   0.0000
    222    0.000000093928102    0.0    0.00     -45.333438394110     -45.333438394110     -45.333438394110     -45.333438300182   0.0000   0.0000   0.0000   0.0000
    223    0.000000075047553    0.0    0.00     -45.333438392067     -45.333438392067     -45.333438392067     -45.333438317019   0.0000   0.0000   0.0000   0.0000
    224    0.000000059551250    0.0    0.00     -45.333438389959     -45.333438389959     -45.333438389959     -45.333438330408   0.0000   0.0000   0.0000   0.0000
    225    0.000000046940744    0.0    0.00     -45.333438387931     -45.333438387931     -45.333438387931     -45.333438340990   0.0000   0.0000   0.0000   0.0000
    226    0.000000036850702    0.0    0.00     -45.333438386174     -45.333438386174     -45.333438386174     -45.333438349324   0.0000   0.0000   0.0000   0.0000
    227    0.000000028932257    0.0    0.00     -45.333438384804     -45.333438384804     -45.333438384804     -45.333438355872   0.0000   0.0000   0.0000   0.0000
    228    0.000000022852129    0.0    0.00     -45.333438383879     -45.333438383879     -45.333438383879     -45.333438361027   0.0000   0.0000   0.0000   0.0000

   MAIN:          EKINC   (thr)          DETOT   (thr)       MAXFORCE   (thr)
   MAIN:   0.228521D-07  0.1D-06  0.925070D-09  0.1D-08  0.000000D+00  0.1D+11
   MAIN: convergence achieved for system relaxation

 * Physical Quantities at step:   229
     Pressure of Nuclei (GPa)             0.00000    229
     Pressure Total (GPa)             0.26203    229


                total energy =      -45.33343838345 Hartree a.u.
              kinetic energy =       12.47666 Hartree a.u.
        electrostatic energy =      -41.31444 Hartree a.u.
                         esr =        0.00000 Hartree a.u.
                       eself =      102.12922 Hartree a.u.
      pseudopotential energy =        3.12722 Hartree a.u.
  n-l pseudopotential energy =        4.92043 Hartree a.u.
 exchange-correlation energy =      -24.54331 Hartree a.u.
           average potential =        0.00000 Hartree a.u.



   Eigenvalues (eV), kp =   1 , spin =  1

   -6.44   -2.65   -2.65   -2.65   -2.65   -2.65   -2.65    2.23    2.23    2.23
    2.23    2.23    2.23    4.86    4.86    4.86
 
 
   CELL_PARAMETERS
   10.64076206    0.00000000    0.00000000
    0.00000000   10.64076206    0.00000000
    0.00000000    0.00000000   10.64076206

   System Density [g/cm^3] :              2.0898178971


   System Volume [A.U.^3] :           1204.8089816234


   Center of mass square displacement (a.u.):   0.000000

   Total stress (GPa)
        0.26203746        -0.00092297        -0.00072536
       -0.00092297         0.26202369        -0.00088444
       -0.00072536        -0.00088444         0.26202747
   ATOMIC_POSITIONS
   Si      0.00000000000000E+00     0.00000000000000E+00     0.00000000000000E+00
   Si      0.00000000000000E+00     0.53203810323000E+01     0.53203810323000E+01
   Si      0.53203810323000E+01     0.53203810323000E+01     0.00000000000000E+00
   Si      0.53203810323000E+01     0.00000000000000E+00     0.53203810323000E+01
   Si      0.26601905161500E+01     0.26601905161500E+01     0.26601905161500E+01
   Si      0.26601905161500E+01     0.79805715484500E+01     0.79805715484500E+01
   Si      0.79805715484500E+01     0.79805715484500E+01     0.26601905161500E+01
   Si      0.79805715484500E+01     0.26601905161500E+01     0.79805715484500E+01
 
   ATOMIC_VELOCITIES
   Si      0.00000000000000E+00     0.00000000000000E+00     0.00000000000000E+00
   Si      0.00000000000000E+00     0.00000000000000E+00     0.00000000000000E+00
   Si      0.00000000000000E+00     0.00000000000000E+00     0.00000000000000E+00
   Si      0.00000000000000E+00     0.00000000000000E+00     0.00000000000000E+00
   Si      0.00000000000000E+00     0.00000000000000E+00     0.00000000000000E+00
   Si      0.00000000000000E+00     0.00000000000000E+00     0.00000000000000E+00
   Si      0.00000000000000E+00     0.00000000000000E+00     0.00000000000000E+00
   Si      0.00000000000000E+00     0.00000000000000E+00     0.00000000000000E+00
 
   Forces acting on atoms (au):
   Si     -0.10820517493479E-02    -0.11017713226208E-02    -0.11150976456289E-02
   Si     -0.11139371108393E-02    -0.11058564407278E-02    -0.10632139072696E-02
   Si     -0.11139170909423E-02    -0.10937618412020E-02    -0.10739767194370E-02
   Si     -0.10780355441683E-02    -0.10839709386894E-02    -0.11345382844477E-02
   Si     -0.11320444763964E-02    -0.10936272113450E-02    -0.10842885994688E-02
   Si     -0.10725519030291E-02    -0.10978356971968E-02    -0.11290211247662E-02
   Si     -0.10733910601576E-02    -0.11070856978421E-02    -0.11049376125420E-02
   Si     -0.11291809296175E-02    -0.11045159341729E-02    -0.10805850262556E-02
 


   Partial temperatures (for each ionic specie) 
   Species  Temp (K)   Mean Square Displacement (a.u.)
        1   0.00E+00     0.0000E+00
    229    0.000000018319275    0.0    0.00     -45.333438383446     -45.333438383446     -45.333438383446     -45.333438365127   0.0000   0.0000   0.0000   0.0000

   MAIN:          EKINC   (thr)          DETOT   (thr)       MAXFORCE   (thr)
   MAIN:   0.183193D-07  0.1D-06  0.432621D-09  0.1D-08  0.000000D+00  0.1D+11
   MAIN: convergence achieved for system relaxation

   writing restart file (with schema): ./outdir/si_50.save/
     restart      :      0.07s CPU      0.09s WALL (       3 calls)


   Averaged Physical Quantities
                      accumulated      this run
   ekinc         :        1.61487       1.61487 (AU)
   ekin          :       14.21803      14.21803 (AU)
   epot          :      -62.36275     -62.36275 (AU)
   total energy  :      -43.29149     -43.29149 (AU)
   temperature   :        0.00000       0.00000 (K )
   enthalpy      :      -43.29149     -43.29149 (AU)
   econs         :      -43.29149     -43.29149 (AU)
   pressure      :       28.42593      28.42593 (Gpa)
   volume        :     1204.80898    1204.80898 (AU)



     Called by MAIN_LOOP:
     initialize   :      9.99s CPU     10.05s WALL (       1 calls)
     main_loop    :    196.12s CPU    197.38s WALL (     229 calls)
     cpr_total    :    196.20s CPU    197.48s WALL (       1 calls)

     Called by INIT_RUN:

     Called by CPR:
     cpr_md       :    196.20s CPU    197.48s WALL (     229 calls)
     move_electro :    188.18s CPU    189.40s WALL (     229 calls)

     Called by move_electrons:
     rhoofr       :     60.86s CPU     61.40s WALL (     230 calls)
     vofrho       :     52.32s CPU     52.53s WALL (     230 calls)
     dforce       :      8.30s CPU      8.39s WALL (    1840 calls)
     calphi       :      0.50s CPU      0.50s WALL (     230 calls)
     newd         :     63.49s CPU     63.88s WALL (     230 calls)
     nlfl         :      0.04s CPU      0.04s WALL (     230 calls)

     Called by ortho:
     ortho_iter   :      0.01s CPU      0.01s WALL (     230 calls)
     rsg          :      0.03s CPU      0.03s WALL (     230 calls)
     rhoset       :      0.06s CPU      0.06s WALL (     230 calls)
     sigset       :      0.05s CPU      0.05s WALL (     230 calls)
     tauset       :      0.05s CPU      0.05s WALL (     230 calls)
     ortho        :      1.62s CPU      1.63s WALL (     230 calls)
     updatc       :      0.05s CPU      0.05s WALL (     230 calls)

     Small boxes:
     rhov         :      4.45s CPU      4.50s WALL (     230 calls)
     fftb         :     42.51s CPU     42.74s WALL (  259442 calls)
     set_cc       :      0.65s CPU      0.65s WALL (     230 calls)
     forcecc      :      0.89s CPU      0.91s WALL (     230 calls)

     Low-level routines:
     prefor       :      0.41s CPU      0.41s WALL (     230 calls)
     nlfq         :      2.18s CPU      2.18s WALL (     230 calls)
     nlsm1        :      1.40s CPU      1.41s WALL (     691 calls)
     nlsm2        :      2.12s CPU      2.12s WALL (     230 calls)
     fft          :     47.71s CPU     48.03s WALL (    4603 calls)
     ffts         :      1.27s CPU      1.29s WALL (     460 calls)
     fftw         :      6.14s CPU      6.22s WALL (    5520 calls)
     fft_scatt_xy :      6.17s CPU      6.23s WALL (   10583 calls)
     fft_scatt_yz :     25.29s CPU     25.48s WALL (   10583 calls)
     fft_scatt_tg :      1.02s CPU      1.04s WALL (    5520 calls)
     betagx       :      5.74s CPU      5.75s WALL (       1 calls)
     qradx        :      2.76s CPU      2.76s WALL (       1 calls)
     gram         :      0.02s CPU      0.02s WALL (       1 calls)
     nlinit       :      9.12s CPU      9.16s WALL (       1 calls)
     init_dim     :      0.02s CPU      0.02s WALL (       1 calls)
     newnlinit    :      0.08s CPU      0.10s WALL (       1 calls)
     from_scratch :      0.84s CPU      0.86s WALL (       1 calls)
     strucf       :      0.00s CPU      0.00s WALL (       1 calls)
     calbec       :      0.00s CPU      0.00s WALL (     231 calls)
 
 
     CP           :   3m26.71s CPU   3m28.06s WALL

 
   This run was terminated on:  14:35:23  11Apr2020            

=------------------------------------------------------------------------------=
   JOB DONE.
=------------------------------------------------------------------------------=
