
     Program CP v.6.4.1 starts on 11Apr2020 at 14:39:10 

     This program is part of the open-source Quantum ESPRESSO suite
     for quantum simulation of materials; please cite
         "P. Giannozzi et al., J. Phys.:Condens. Matter 21 395502 (2009);
         "P. Giannozzi et al., J. Phys.:Condens. Matter 29 465901 (2017);
          URL http://www.quantum-espresso.org", 
     in publications or presentations arising from this work. More details at
     http://www.quantum-espresso.org/quote

     Parallel version (MPI), running on     2 processors

     MPI processes distributed on     1 nodes
     R & G space division:  proc/nbgrp/npool/nimage =       2
     Waiting for input...
     Reading input from standard input

   Job Title: MD Simulation


   Atomic Pseudopotentials Parameters
   ----------------------------------

   Reading pseudopotential for specie #  1 from file :
   /home/anonymous/quantumEspresso_2019/SSSP_precision_pseudos/Si.pbe-n-rrkjus_psl.1.0.0.UPF
   file type is UPF v.2


   Main Simulation Parameters (from input)
   ---------------------------------------
   Restart Mode       =       0   reset_counters 
   Number of MD Steps =    3000
   Print out every           10 MD Steps
   Reads from unit    =      51
   Writes to unit     =      52
   MD Simulation time step            =       5.00
   Electronic fictitious mass (emass) =     300.00
   emass cut-off                      =       2.50

   Simulation Cell Parameters (from input)
   external pressure       =            0.00 [KBar]
   wmass (calculated)      =        31123.88 [AU]
   ibrav =    8
   alat  =    10.64076206
   a1    =    10.64076206    0.00000000    0.00000000
   a2    =     0.00000000   10.64076206    0.00000000
   a3    =     0.00000000    0.00000000   10.64076206
 
   b1    =     0.09397823    0.00000000    0.00000000
   b2    =     0.00000000    0.09397823    0.00000000
   b3    =     0.00000000    0.00000000    0.09397823
   omega =    1204.80898162

   Energy Cut-offs
   ---------------
   Ecutwfc =   50.0 Ry,      Ecutrho =  400.0 Ry,      Ecuts =  200.0 Ry
   Gcutwfc =   12.0     ,    Gcutrho =   33.9          Gcuts =   24.0
   NOTA BENE: refg, mmx =   0.050000  9600
   Eigenvalues calculated without the kinetic term contribution
   Orthog. with lagrange multipliers : eps =   0.10E-10,  max =  30
   Electron dynamics with newton equations
   Electron dynamics : the temperature is not controlled

   Electronic states
   -----------------
   Number of Electrons=    32, of States =    16
   Occupation numbers :
   2.00 2.00 2.00 2.00 2.00 2.00 2.00 2.00 2.00 2.00
   2.00 2.00 2.00 2.00 2.00 2.00


   Exchange and correlations functionals
   -------------------------------------
     Exchange-correlation      = PBE ( 1  4  3  4 0 0)


   Ions Simulation Parameters
   --------------------------
   Ions are allowed to move
   Ions dynamics with newton equations
   the temperature is computed for    24 degrees of freedom
   ion dynamics with fricp =  0.0000 and greasp =  1.0000
   Zero initial momentum for ions
   Ionic position (from input)
   sorted by specie, and converted to real a.u. coordinates
   Species   1 atoms =    8 mass =     51196.73 (a.u.),        28.09 (amu) rcmax =   0.50 (a.u.)
        0.000000     0.000000     0.000000
        0.000000     5.320381     5.320381
        5.320381     5.320381     0.000000
        5.320381     0.000000     5.320381
        2.660191     2.660191     2.660191
        2.660191     7.980572     7.980572
        7.980572     7.980572     2.660191
        7.980572     2.660191     7.980572
   Ionic position will be re-read from restart file

   All atoms are allowed to move
   Ionic temperature is not controlled


   Cell Dynamics Parameters (from STDIN)
   -------------------------------------
   Starting cell generated from CELLDM
   Cell parameters will be re-read from restart file
   Constant VOLUME Molecular dynamics
   cell parameters are not allowed to move

   Verbosity: iverbosity =  0



   Simulation dimensions initialization
   ------------------------------------

   unit vectors of full simulation cell
   in real space:                         in reciprocal space (units 2pi/alat):
   1    10.6408    0.0000    0.0000              1.0000    0.0000    0.0000
   2     0.0000   10.6408    0.0000              0.0000    1.0000    0.0000
   3     0.0000    0.0000   10.6408              0.0000    0.0000    1.0000
 
     Parallelization info
     --------------------
     sticks:   dense  smooth     PW     G-vecs:    dense   smooth      PW
     Min        1795     894    218                81445    28774    3558
     Max        1798     895    219                81446    28781    3565
     Sum        3593    1789    437               162891    57555    7123
 
 
   Real Mesh
   ---------
   Global Dimensions   Local  Dimensions   Processor Grid
   .X.   .Y.   .Z.     .X.   .Y.   .Z.     .X.   .Y.   .Z.
    72    72    72      72    72    36       1     1     2
   Array leading dimensions ( nr1x, nr2x, nr3x )   =     72    72    72
   Local number of cell to store the grid ( nrxx ) =     186624
   Number of x-y planes for each processors: 
  |  72,  36  |  72,  36  |
 
   Smooth Real Mesh
   ----------------
   Global Dimensions   Local  Dimensions   Processor Grid
   .X.   .Y.   .Z.     .X.   .Y.   .Z.     .X.   .Y.   .Z.
    48    48    48      48    48    24       1     1     2
   Array leading dimensions ( nr1x, nr2x, nr3x )   =     48    48    48
   Local number of cell to store the grid ( nrxx ) =      55296
   Number of x-y planes for each processors: 
  |  48,  24  |  48,  24  |
 
   Small Box Real Mesh
   -------------------
   Global Dimensions   Local  Dimensions   Processor Grid
   .X.   .Y.   .Z.     .X.   .Y.   .Z.     .X.   .Y.   .Z.
    20    20    20      20    20    20       1     1     1
   Array leading dimensions ( nr1x, nr2x, nr3x )   =     20    20    20
   Local number of cell to store the grid ( nrxx ) =       8000
 
   unit vectors of box grid cell
   in real space:                         in reciprocal space:
       2.9558    0.0000    0.0000              1.0000    0.0000    0.0000
       0.0000    2.9558    0.0000              0.0000    1.0000    0.0000
       0.0000    0.0000    2.9558              0.0000    0.0000    1.0000
 
   Reciprocal Space Mesh
   ---------------------
   Large Mesh
     Global(ngm_g)    MinLocal       MaxLocal      Average
          81446          40723          40723       40723.00
   Smooth Mesh
     Global(ngms_g)   MinLocal       MaxLocal      Average
          28778          14387          14391       14389.00
   Wave function Mesh
     Global(ngw_g)    MinLocal       MaxLocal      Average
           3562           1779           1783        1781.00

   Small box Mesh
   ngb =         1716 not distributed to processors


   System geometry initialization
   ------------------------------
   cell parameters read from restart file
   ibrav =    8       cell parameters 


   cell at current step : h(t)
      10.64076       0.00000       0.00000
       0.00000      10.64076       0.00000
       0.00000       0.00000      10.64076

   cell at previous step : h(t-dt)
      10.64076       0.00000       0.00000
       0.00000      10.64076       0.00000
       0.00000       0.00000      10.64076
 
 
   unit vectors of box grid cell
   in real space:                         in reciprocal space:
       2.9558    0.0000    0.0000              1.0000    0.0000    0.0000
       0.0000    2.9558    0.0000              0.0000    1.0000    0.0000
       0.0000    0.0000    2.9558              0.0000    0.0000    1.0000

   Matrix Multiplication Performances
   ortho mmul, time for parallel driver      =   0.00000 with    1 procs

   Constraints matrixes will be distributed block like on
   ortho sub-group =    1*   1 procs



   Pseudopotentials initialization
   -------------------------------
  nlinit  nh(is), ngb, is, kkbeta, lmaxq =           18        1716           1
         829           5
 
                        qqq 
  -0.0772  -0.0666   0.0000   0.0000   0.0000   0.0000
  -0.0666  -0.0419   0.0000   0.0000   0.0000   0.0000
   0.0000   0.0000  -0.0095  -0.0249   0.0000   0.0000
   0.0000   0.0000  -0.0249  -0.0561   0.0000   0.0000
   0.0000   0.0000   0.0000   0.0000   0.0059   0.0065
   0.0000   0.0000   0.0000   0.0000   0.0065   0.0070
 


   Common initialization

   Specie:     1
   1  indv=  1   ang. mom=  0
   2  indv=  2   ang. mom=  0
   3  indv=  3   ang. mom=  1
   4  indv=  3   ang. mom=  1
   5  indv=  3   ang. mom=  1
   6  indv=  4   ang. mom=  1
   7  indv=  4   ang. mom=  1
   8  indv=  4   ang. mom=  1
   9  indv=  5   ang. mom=  2
  10  indv=  5   ang. mom=  2
  11  indv=  5   ang. mom=  2
  12  indv=  5   ang. mom=  2
  13  indv=  5   ang. mom=  2
  14  indv=  6   ang. mom=  2
  15  indv=  6   ang. mom=  2
  16  indv=  6   ang. mom=  2
  17  indv=  6   ang. mom=  2
  18  indv=  6   ang. mom=  2
 
                        dion 
   0.2480   0.2226   0.0000   0.0000   0.0000   0.0000
   0.2226   0.5178   0.0000   0.0000   0.0000   0.0000
   0.0000   0.0000   0.0832   0.0571   0.0000   0.0000
   0.0000   0.0000   0.0571   0.1029   0.0000   0.0000
   0.0000   0.0000   0.0000   0.0000  -0.0224  -0.0221
   0.0000   0.0000   0.0000   0.0000  -0.0221  -0.0218

   Cell parameters from input file are used in electron mass preconditioning
   init_tpiba2=    0.34866975
 
   Short Legend and Physical Units in the Output
   ---------------------------------------------
   NFI    [int]          - step index
   EKINC  [HARTREE A.U.] - kinetic energy of the fictitious electronic dynamics
   TEMPH  [K]            - Temperature of the fictitious cell dynamics
   TEMP   [K]            - Ionic temperature
   ETOT   [HARTREE A.U.] - Scf total energy (Kohn-Sham hamiltonian)
   ENTHAL [HARTREE A.U.] - Enthalpy ( ETOT + P * V )
   ECONS  [HARTREE A.U.] - Enthalpy + kinetic energy of ions and cell
   ECONT  [HARTREE A.U.] - Constant of motion for the CP lagrangian
 
 Ionic velocities set to zero
 Electronic velocities set to zero

   formf: eself=   102.12922
   formf:     vps(g=0)=   0.0063764     rhops(g=0)=  -0.0033200
   formf:     vps(g=0)=   0.0061714     rhops(g=0)=  -0.0032485
   formf:     vps(g=0)=   0.0061714     rhops(g=0)=  -0.0032485
   formf:     vps(g=0)=   0.0061714     rhops(g=0)=  -0.0032485
   formf:     vps(g=0)=   0.0059723     rhops(g=0)=  -0.0031784
   formf: sum_g vps(g)=   2.4285170 sum_g rhops(g)=  -2.8750097
   Delta V(G=0):   0.020860Ry,    0.567639eV
 
  nfi     ekinc              temph  tempp     etot                 enthal               econs                econt              vnhh    xnhh0   vnhp    xnhp0
      1    0.000000001582648    0.0    0.00     -45.333244994826     -45.333244994826     -45.333244991989     -45.333244990407   0.0000   0.0000   0.0000   0.0000
      2    0.000000006327660    0.0    0.00     -45.333245022890     -45.333245022890     -45.333244997385     -45.333244991058   0.0000   0.0000   0.0000   0.0000
      3    0.000000011565642    0.0    0.00     -45.333245073715     -45.333245073715     -45.333245003003     -45.333244991438   0.0000   0.0000   0.0000   0.0000
      4    0.000000013905692    0.0    0.00     -45.333245143266     -45.333245143266     -45.333245005012     -45.333244991106   0.0000   0.0000   0.0000   0.0000
      5    0.000000013541754    0.0    0.01     -45.333245232039     -45.333245232039     -45.333245004103     -45.333244990561   0.0000   0.0000   0.0000   0.0000
      6    0.000000011911540    0.0    0.01     -45.333245341697     -45.333245341697     -45.333245002066     -45.333244990154   0.0000   0.0000   0.0000   0.0000
      7    0.000000009741099    0.0    0.01     -45.333245472595     -45.333245472595     -45.333244999278     -45.333244989537   0.0000   0.0000   0.0000   0.0000
      8    0.000000008440663    0.0    0.02     -45.333245626058     -45.333245626058     -45.333244997011     -45.333244988571   0.0000   0.0000   0.0000   0.0000
      9    0.000000010437160    0.0    0.02     -45.333245805219     -45.333245805219     -45.333244998303     -45.333244987866   0.0000   0.0000   0.0000   0.0000
     10    0.000000015922757    0.0    0.03     -45.333246010732     -45.333246010732     -45.333245003710     -45.333244987787   0.0000   0.0000   0.0000   0.0000
     11    0.000000021205443    0.0    0.03     -45.333246238321     -45.333246238321     -45.333245008872     -45.333244987666   0.0000   0.0000   0.0000   0.0000
     12    0.000000022597878    0.0    0.04     -45.333246483597     -45.333246483597     -45.333245009329     -45.333244986731   0.0000   0.0000   0.0000   0.0000
     13    0.000000020716581    0.0    0.05     -45.333246747534     -45.333246747534     -45.333245006003     -45.333244985287   0.0000   0.0000   0.0000   0.0000
     14    0.000000018920011    0.0    0.05     -45.333247034315     -45.333247034315     -45.333245003079     -45.333244984159   0.0000   0.0000   0.0000   0.0000
     15    0.000000018786194    0.0    0.06     -45.333247345451     -45.333247345451     -45.333245002182     -45.333244983396   0.0000   0.0000   0.0000   0.0000
     16    0.000000019532520    0.0    0.07     -45.333247679287     -45.333247679287     -45.333245001954     -45.333244982422   0.0000   0.0000   0.0000   0.0000
     17    0.000000020864995    0.0    0.08     -45.333248034974     -45.333248034974     -45.333245002034     -45.333244981169   0.0000   0.0000   0.0000   0.0000
     18    0.000000023410724    0.0    0.09     -45.333248412986     -45.333248412986     -45.333245003518     -45.333244980107   0.0000   0.0000   0.0000   0.0000
     19    0.000000026496635    0.0    0.10     -45.333248811991     -45.333248811991     -45.333245005674     -45.333244979177   0.0000   0.0000   0.0000   0.0000
     20    0.000000028508280    0.0    0.11     -45.333249229320     -45.333249229320     -45.333245006236     -45.333244977728   0.0000   0.0000   0.0000   0.0000
     21    0.000000030088709    0.0    0.12     -45.333249665473     -45.333249665473     -45.333245005761     -45.333244975672   0.0000   0.0000   0.0000   0.0000
     22    0.000000034293027    0.0    0.13     -45.333250124612     -45.333250124612     -45.333245008086     -45.333244973793   0.0000   0.0000   0.0000   0.0000
     23    0.000000042339231    0.0    0.15     -45.333250608998     -45.333250608998     -45.333245014874     -45.333244972534   0.0000   0.0000   0.0000   0.0000
     24    0.000000051352668    0.0    0.16     -45.333251115850     -45.333251115850     -45.333245022678     -45.333244971325   0.0000   0.0000   0.0000   0.0000
     25    0.000000057715935    0.0    0.17     -45.333251641430     -45.333251641430     -45.333245027260     -45.333244969544   0.0000   0.0000   0.0000   0.0000
     26    0.000000060806852    0.0    0.19     -45.333252185554     -45.333252185554     -45.333245028261     -45.333244967454   0.0000   0.0000   0.0000   0.0000
     27    0.000000061990976    0.0    0.20     -45.333252749907     -45.333252749907     -45.333245027555     -45.333244965565   0.0000   0.0000   0.0000   0.0000
     28    0.000000061941899    0.0    0.22     -45.333253334513     -45.333253334513     -45.333245025641     -45.333244963699   0.0000   0.0000   0.0000   0.0000
     29    0.000000061155676    0.0    0.23     -45.333253938850     -45.333253938850     -45.333245022607     -45.333244961451   0.0000   0.0000   0.0000   0.0000
     30    0.000000061602325    0.0    0.25     -45.333254564521     -45.333254564521     -45.333245020692     -45.333244959090   0.0000   0.0000   0.0000   0.0000
     31    0.000000065094324    0.0    0.27     -45.333255213288     -45.333255213288     -45.333245022262     -45.333244957168   0.0000   0.0000   0.0000   0.0000
     32    0.000000070507444    0.0    0.29     -45.333255883220     -45.333255883220     -45.333245025984     -45.333244955476   0.0000   0.0000   0.0000   0.0000
     33    0.000000075131704    0.0    0.30     -45.333256570238     -45.333256570238     -45.333245028398     -45.333244953266   0.0000   0.0000   0.0000   0.0000
     34    0.000000078782805    0.0    0.32     -45.333257273430     -45.333257273430     -45.333245029215     -45.333244950432   0.0000   0.0000   0.0000   0.0000
     35    0.000000084314249    0.0    0.34     -45.333257995827     -45.333257995827     -45.333245031960     -45.333244947645   0.0000   0.0000   0.0000   0.0000
     36    0.000000093787862    0.0    0.36     -45.333258739645     -45.333258739645     -45.333245039027     -45.333244945239   0.0000   0.0000   0.0000   0.0000
     37    0.000000106262249    0.0    0.38     -45.333259503819     -45.333259503819     -45.333245049051     -45.333244942789   0.0000   0.0000   0.0000   0.0000
     38    0.000000119775193    0.0    0.40     -45.333260286863     -45.333260286863     -45.333245059754     -45.333244939979   0.0000   0.0000   0.0000   0.0000
     39    0.000000133172426    0.0    0.42     -45.333261089069     -45.333261089069     -45.333245070316     -45.333244937143   0.0000   0.0000   0.0000   0.0000
     40    0.000000144987643    0.0    0.44     -45.333261910278     -45.333261910278     -45.333245079516     -45.333244934529   0.0000   0.0000   0.0000   0.0000
     41    0.000000152862511    0.0    0.46     -45.333262748333     -45.333262748333     -45.333245084592     -45.333244931729   0.0000   0.0000   0.0000   0.0000
     42    0.000000156077506    0.0    0.49     -45.333263602015     -45.333263602015     -45.333245084471     -45.333244928393   0.0000   0.0000   0.0000   0.0000
     43    0.000000157373299    0.0    0.51     -45.333264473525     -45.333264473525     -45.333245082305     -45.333244924932   0.0000   0.0000   0.0000   0.0000
     44    0.000000160395733    0.0    0.53     -45.333265365565     -45.333265365565     -45.333245082316     -45.333244921921   0.0000   0.0000   0.0000   0.0000
     45    0.000000166113240    0.0    0.56     -45.333266277248     -45.333266277248     -45.333245085283     -45.333244919170   0.0000   0.0000   0.0000   0.0000
     46    0.000000173279763    0.0    0.58     -45.333267205344     -45.333267205344     -45.333245089344     -45.333244916064   0.0000   0.0000   0.0000   0.0000
     47    0.000000181439583    0.0    0.61     -45.333268148544     -45.333268148544     -45.333245093977     -45.333244912537   0.0000   0.0000   0.0000   0.0000
     48    0.000000191422939    0.0    0.63     -45.333269107951     -45.333269107951     -45.333245100449     -45.333244909026   0.0000   0.0000   0.0000   0.0000
     49    0.000000203341101    0.0    0.66     -45.333270084044     -45.333270084044     -45.333245108961     -45.333244905620   0.0000   0.0000   0.0000   0.0000
     50    0.000000216285700    0.0    0.68     -45.333271076032     -45.333271076032     -45.333245118261     -45.333244901976   0.0000   0.0000   0.0000   0.0000
     51    0.000000230131022    0.0    0.71     -45.333272084205     -45.333272084205     -45.333245128204     -45.333244898073   0.0000   0.0000   0.0000   0.0000
     52    0.000000245568991    0.0    0.74     -45.333273110060     -45.333273110060     -45.333245139918     -45.333244894349   0.0000   0.0000   0.0000   0.0000
     53    0.000000261758152    0.0    0.76     -45.333274153262     -45.333274153262     -45.333245152682     -45.333244890924   0.0000   0.0000   0.0000   0.0000
     54    0.000000275738192    0.0    0.79     -45.333275210852     -45.333275210852     -45.333245163036     -45.333244887298   0.0000   0.0000   0.0000   0.0000
     55    0.000000285188554    0.0    0.82     -45.333276280762     -45.333276280762     -45.333245168323     -45.333244883135   0.0000   0.0000   0.0000   0.0000
     56    0.000000290532135    0.0    0.85     -45.333277364209     -45.333277364209     -45.333245169303     -45.333244878771   0.0000   0.0000   0.0000   0.0000
     57    0.000000293518088    0.0    0.88     -45.333278463344     -45.333278463344     -45.333245168159     -45.333244874641   0.0000   0.0000   0.0000   0.0000
     58    0.000000295132730    0.0    0.91     -45.333279578202     -45.333279578202     -45.333245165765     -45.333244870632   0.0000   0.0000   0.0000   0.0000
     59    0.000000296112280    0.0    0.94     -45.333280707472     -45.333280707472     -45.333245162540     -45.333244866427   0.0000   0.0000   0.0000   0.0000
     60    0.000000298296693    0.0    0.97     -45.333281850738     -45.333281850738     -45.333245160405     -45.333244862108   0.0000   0.0000   0.0000   0.0000
     61    0.000000303758614    0.0    1.00     -45.333283007955     -45.333283007955     -45.333245161673     -45.333244857914   0.0000   0.0000   0.0000   0.0000
     62    0.000000312992977    0.0    1.03     -45.333284177784     -45.333284177784     -45.333245166676     -45.333244853683   0.0000   0.0000   0.0000   0.0000
     63    0.000000325255965    0.0    1.06     -45.333285358659     -45.333285358659     -45.333245174307     -45.333244849052   0.0000   0.0000   0.0000   0.0000
     64    0.000000735138215    0.0    1.09     -45.333279257120     -45.333279257120     -45.333237947762     -45.333237212624   0.0000   0.0000   0.0000   0.0000
     65    0.000002037833762    0.0    1.12     -45.333281755200     -45.333281755200     -45.333239359805     -45.333237321972   0.0000   0.0000   0.0000   0.0000
     66    0.000003782474757    0.0    1.14     -45.333284753969     -45.333284753969     -45.333241245889     -45.333237463414   0.0000   0.0000   0.0000   0.0000
     67    0.000004935937575    0.0    1.17     -45.333287129051     -45.333287129051     -45.333242478630     -45.333237542692   0.0000   0.0000   0.0000   0.0000
     68    0.000004901157247    0.0    1.21     -45.333288239355     -45.333288239355     -45.333242413860     -45.333237512703   0.0000   0.0000   0.0000   0.0000
     69    0.000003850937057    0.0    1.24     -45.333288281160     -45.333288281160     -45.333241250647     -45.333237399710   0.0000   0.0000   0.0000   0.0000
     70    0.000002554553337    0.0    1.27     -45.333288090854     -45.333288090854     -45.333239830931     -45.333237276378   0.0000   0.0000   0.0000   0.0000
     71    0.000001859216608    0.0    1.30     -45.333288584899     -45.333288584899     -45.333239077546     -45.333237218329   0.0000   0.0000   0.0000   0.0000
     72    0.000002150825576    0.0    1.34     -45.333290177207     -45.333290177207     -45.333239410076     -45.333237259251   0.0000   0.0000   0.0000   0.0000
     73    0.000003124760193    0.0    1.37     -45.333292523759     -45.333292523759     -45.333240488911     -45.333237364151   0.0000   0.0000   0.0000   0.0000
     74    0.000004035187265    0.0    1.40     -45.333294792169     -45.333294792169     -45.333241485098     -45.333237449911   0.0000   0.0000   0.0000   0.0000
     75    0.000004260762276    0.0    1.44     -45.333296292047     -45.333296292047     -45.333241711283     -45.333237450521   0.0000   0.0000   0.0000   0.0000
     76    0.000004123955736    0.0    1.47     -45.333291257146     -45.333291257146     -45.333235443679     -45.333231319724   0.0000   0.0000   0.0000   0.0000
     77    0.000004617022472    0.0    1.50     -45.333292962232     -45.333292962232     -45.333235955775     -45.333231338753   0.0000   0.0000   0.0000   0.0000
     78    0.000005929224932    0.0    1.53     -45.333295572402     -45.333295572402     -45.333237371325     -45.333231442100   0.0000   0.0000   0.0000   0.0000
     79    0.000007306337178    0.0    1.56     -45.333298260013     -45.333298260013     -45.333238860245     -45.333231553908   0.0000   0.0000   0.0000   0.0000
     80    0.000007926835348    0.0    1.59     -45.333300133393     -45.333300133393     -45.333239525328     -45.333231598492   0.0000   0.0000   0.0000   0.0000
     81    0.000007434930309    0.0    1.63     -45.333300814601     -45.333300814601     -45.333238982718     -45.333231547788   0.0000   0.0000   0.0000   0.0000
     82    0.000006155715528    0.0    1.66     -45.333300660523     -45.333300660523     -45.333237583958     -45.333231428243   0.0000   0.0000   0.0000   0.0000
     83    0.000004903173312    0.0    1.69     -45.333300556736     -45.333300556736     -45.333236211632     -45.333231308458   0.0000   0.0000   0.0000   0.0000
     84    0.000004480952129    0.0    1.73     -45.333301384140     -45.333301384140     -45.333235747362     -45.333231266409   0.0000   0.0000   0.0000   0.0000
     85    0.000005143853908    0.0    1.76     -45.333303424135     -45.333303424135     -45.333236477312     -45.333231333458   0.0000   0.0000   0.0000   0.0000
     86    0.000006401527616    0.0    1.80     -45.333306127314     -45.333306127314     -45.333237859867     -45.333231458340   0.0000   0.0000   0.0000   0.0000
     87    0.000007371746602    0.0    1.83     -45.333308504581     -45.333308504581     -45.333238914642     -45.333231542896   0.0000   0.0000   0.0000   0.0000
     88    0.000007802498553    0.0    1.86     -45.333304781996     -45.333304781996     -45.333233919637     -45.333226117138   0.0000   0.0000   0.0000   0.0000
     89    0.000008252880660    0.0    1.90     -45.333306472306     -45.333306472306     -45.333234386332     -45.333226133452   0.0000   0.0000   0.0000   0.0000
     90    0.000008927618355    0.0    1.93     -45.333308411338     -45.333308411338     -45.333235101926     -45.333226174307   0.0000   0.0000   0.0000   0.0000
     91    0.000009498897712    0.0    1.96     -45.333310243091     -45.333310243091     -45.333235706246     -45.333226207348   0.0000   0.0000   0.0000   0.0000
     92    0.000010530497444    0.0    1.99     -45.333297760807     -45.333297760807     -45.333222214475     -45.333211683978   0.0000   0.0000   0.0000   0.0000
     93    0.000012964347385    0.0    2.01     -45.333301212461     -45.333301212461     -45.333224852662     -45.333211888314   0.0000   0.0000   0.0000   0.0000
     94    0.000016011515373    0.0    2.03     -45.333305370805     -45.333305370805     -45.333228151270     -45.333212139755   0.0000   0.0000   0.0000   0.0000
     95    0.000017873011304    0.0    2.06     -45.333308266018     -45.333308266018     -45.333230140980     -45.333212267969   0.0000   0.0000   0.0000   0.0000
     96    0.000017620686952    0.0    2.08     -45.333308894981     -45.333308894981     -45.333229817077     -45.333212196390   0.0000   0.0000   0.0000   0.0000
     97    0.000015717571728    0.0    2.11     -45.333307778450     -45.333307778450     -45.333227711827     -45.333211994255   0.0000   0.0000   0.0000   0.0000
     98    0.000013569545923    0.0    2.13     -45.333306444759     -45.333306444759     -45.333225368586     -45.333211799040   0.0000   0.0000   0.0000   0.0000
     99    0.000012557173879    0.0    2.16     -45.333306375394     -45.333306375394     -45.333224282787     -45.333211725613   0.0000   0.0000   0.0000   0.0000

 * Physical Quantities at step:   100

   from rhoofr: total integrated electronic density
   in g-space =     32.000000   in r-space =    32.000000


                total energy =      -45.33330811292 Hartree a.u.
              kinetic energy =       12.47657 Hartree a.u.
        electrostatic energy =      -41.31440 Hartree a.u.
                         esr =        0.00000 Hartree a.u.
                       eself =      102.12922 Hartree a.u.
      pseudopotential energy =        3.12724 Hartree a.u.
  n-l pseudopotential energy =        4.92049 Hartree a.u.
 exchange-correlation energy =      -24.54321 Hartree a.u.
           average potential =        0.00000 Hartree a.u.



   Eigenvalues (eV), kp =   1 , spin =  1

   -6.44   -2.67   -2.66   -2.66   -2.65   -2.64   -2.64    2.22    2.22    2.22
    2.23    2.23    2.23    4.86    4.86    4.86
 
 
   CELL_PARAMETERS
   10.64076206    0.00000000    0.00000000
    0.00000000   10.64076206    0.00000000
    0.00000000    0.00000000   10.64076206

   System Density [g/cm^3] :              2.0898178971


   System Volume [A.U.^3] :           1204.8089816234


   Center of mass square displacement (a.u.):   0.000000

   ATOMIC_POSITIONS
   Si      0.90017236403497E-02     0.32891600214059E-02     0.48194200220519E-02
   Si      0.12490926196147E-02     0.53209541174295E+01     0.53088526375102E+01
   Si      0.53212992747622E+01     0.53186116719234E+01    -0.12855690554976E-01
   Si      0.53244617131830E+01    -0.36609579772325E-03     0.53176223297473E+01
   Si      0.26696744573946E+01     0.26601836096558E+01     0.26576140664213E+01
   Si      0.26521527456497E+01     0.79801922115395E+01     0.79716960853475E+01
   Si      0.79796400486813E+01     0.79774227967775E+01     0.26591267591589E+01
   Si      0.79938089375258E+01     0.26652171389727E+01     0.79741353506858E+01
 
   ATOMIC_VELOCITIES
   Si     -0.16651228303151E-04    -0.12822504319983E-04    -0.12668779444735E-04
   Si      0.59293110921798E-05     0.31734426334202E-05     0.31090621101302E-05
   Si     -0.11053990273424E-04     0.13197431039252E-04     0.43130140702400E-05
   Si     -0.84451281412929E-05    -0.84521579689818E-05     0.14649454102769E-04
   Si      0.11784020718757E-05     0.14492768548491E-04     0.48230568363246E-05
   Si      0.18863615620802E-04    -0.55657062609540E-05     0.40948528077721E-05
   Si      0.13780078372120E-04     0.13059256975267E-04    -0.24090166275006E-04
   Si     -0.36010604390435E-05    -0.17082530647287E-04     0.57695057920356E-05
 


   Partial temperatures (for each ionic specie) 
   Species  Temp (K)   Mean Square Displacement (a.u.)
        1   2.19E+00     2.9567E-05
 
  nfi     ekinc              temph  tempp     etot                 enthal               econs                econt              vnhh    xnhh0   vnhp    xnhp0
    100    0.000013197410555    0.0    2.19     -45.333308112923     -45.333308112923     -45.333225007499     -45.333211810089   0.0000   0.0000   0.0000   0.0000

   writing restart file (with schema): ./outdir/si_52.save/
     restart      :      0.02s CPU      0.03s WALL (       1 calls)
    101    0.000015270966461    0.0    2.21     -45.333306045395     -45.333306045395     -45.333222040630     -45.333206769664   0.0000   0.0000   0.0000   0.0000
    102    0.000018000794080    0.0    2.23     -45.333309820754     -45.333309820754     -45.333225023888     -45.333207023094   0.0000   0.0000   0.0000   0.0000
    103    0.000019950018137    0.0    2.25     -45.333312697084     -45.333312697084     -45.333227110292     -45.333207160274   0.0000   0.0000   0.0000   0.0000
    104    0.000020099946847    0.0    2.27     -45.333313570577     -45.333313570577     -45.333227200980     -45.333207101033   0.0000   0.0000   0.0000   0.0000
    105    0.000018781022941    0.0    2.29     -45.333312844027     -45.333312844027     -45.333225699348     -45.333206918325   0.0000   0.0000   0.0000   0.0000
    106    0.000017207045691    0.0    2.31     -45.333311874080     -45.333311874080     -45.333223964257     -45.333206757211   0.0000   0.0000   0.0000   0.0000
    107    0.000016496262430    0.0    2.33     -45.333311875694     -45.333311875694     -45.333223207630     -45.333206711368   0.0000   0.0000   0.0000   0.0000
    108    0.000016976365957    0.0    2.35     -45.333313190705     -45.333313190705     -45.333223761354     -45.333206784988   0.0000   0.0000   0.0000   0.0000
    109    0.000018113148718    0.0    2.37     -45.333315239133     -45.333315239133     -45.333225031062     -45.333206917914   0.0000   0.0000   0.0000   0.0000
    110    0.000018951193682    0.0    2.40     -45.333316985038     -45.333316985038     -45.333225967827     -45.333207016633   0.0000   0.0000   0.0000   0.0000
    111    0.000018797503586    0.0    2.42     -45.333317660727     -45.333317660727     -45.333225798753     -45.333207001249   0.0000   0.0000   0.0000   0.0000
    112    0.000017755047734    0.0    2.44     -45.333317366613     -45.333317366613     -45.333224630488     -45.333206875440   0.0000   0.0000   0.0000   0.0000
    113    0.000017028291367    0.0    2.46     -45.333313543897     -45.333313543897     -45.333220022430     -45.333202994138   0.0000   0.0000   0.0000   0.0000
    114    0.000017971483754    0.0    2.48     -45.333315262827     -45.333315262827     -45.333221056667     -45.333203085183   0.0000   0.0000   0.0000   0.0000
    115    0.000020309116867    0.0    2.50     -45.333318516244     -45.333318516244     -45.333223636094     -45.333203326977   0.0000   0.0000   0.0000   0.0000
    116    0.000022363232799    0.0    2.51     -45.333321430688     -45.333321430688     -45.333225894961     -45.333203531728   0.0000   0.0000   0.0000   0.0000
    117    0.000023075965992    0.0    2.53     -45.333318472883     -45.333318472883     -45.333222375377     -45.333199299411   0.0000   0.0000   0.0000   0.0000
    118    0.000022715656384    0.0    2.54     -45.333318554867     -45.333318554867     -45.333221968309     -45.333199252653   0.0000   0.0000   0.0000   0.0000
    119    0.000021907810265    0.0    2.56     -45.333318173632     -45.333318173632     -45.333221072503     -45.333199164692   0.0000   0.0000   0.0000   0.0000
    120    0.000021243782181    0.0    2.57     -45.333317978681     -45.333317978681     -45.333220330935     -45.333199087153   0.0000   0.0000   0.0000   0.0000
    121    0.000021242569948    0.0    2.58     -45.333318548122     -45.333318548122     -45.333220319681     -45.333199077111   0.0000   0.0000   0.0000   0.0000
    122    0.000021943437753    0.0    2.60     -45.333319937384     -45.333319937384     -45.333221104189     -45.333199160751   0.0000   0.0000   0.0000   0.0000
    123    0.000022771731750    0.0    2.62     -45.333321497586     -45.333321497586     -45.333222051105     -45.333199279373   0.0000   0.0000   0.0000   0.0000
    124    0.000022944754794    0.0    2.63     -45.333322324196     -45.333322324196     -45.333222271229     -45.333199326474   0.0000   0.0000   0.0000   0.0000
    125    0.000022583850702    0.0    2.65     -45.333317263891     -45.333317263891     -45.333216737288     -45.333194153437   0.0000   0.0000   0.0000   0.0000
    126    0.000022578324271    0.0    2.65     -45.333317597578     -45.333317597578     -45.333216723444     -45.333194145119   0.0000   0.0000   0.0000   0.0000
    127    0.000023217861429    0.0    2.66     -45.333318638367     -45.333318638367     -45.333217420281     -45.333194202419   0.0000   0.0000   0.0000   0.0000
    128    0.000024084303322    0.0    2.67     -45.333319919204     -45.333319919204     -45.333218360871     -45.333194276568   0.0000   0.0000   0.0000   0.0000
    129    0.000024658010342    0.0    2.68     -45.333320859323     -45.333320859323     -45.333218965056     -45.333194307045   0.0000   0.0000   0.0000   0.0000
    130    0.000024695386266    0.0    2.69     -45.333321198197     -45.333321198197     -45.333218982322     -45.333194286935   0.0000   0.0000   0.0000   0.0000
    131    0.000024309305003    0.0    2.70     -45.333321062804     -45.333321062804     -45.333218550856     -45.333194241551   0.0000   0.0000   0.0000   0.0000
    132    0.000023819399367    0.0    2.70     -45.333320787023     -45.333320787023     -45.333218009893     -45.333194190494   0.0000   0.0000   0.0000   0.0000
    133    0.000023582132698    0.0    2.71     -45.333320751301     -45.333320751301     -45.333217734783     -45.333194152650   0.0000   0.0000   0.0000   0.0000
    134    0.000023822341454    0.0    2.72     -45.333321224617     -45.333321224617     -45.333217979440     -45.333194157099   0.0000   0.0000   0.0000   0.0000
    135    0.000024882397804    0.0    2.72     -45.333315607493     -45.333315607493     -45.333212245198     -45.333187362800   0.0000   0.0000   0.0000   0.0000
    136    0.000026869579687    0.0    2.72     -45.333317801109     -45.333317801109     -45.333214402151     -45.333187532571   0.0000   0.0000   0.0000   0.0000
    137    0.000028918082035    0.0    2.72     -45.333320091066     -45.333320091066     -45.333216600315     -45.333187682233   0.0000   0.0000   0.0000   0.0000
    138    0.000029945492267    0.0    2.73     -45.333321300627     -45.333321300627     -45.333217669106     -45.333187723613   0.0000   0.0000   0.0000   0.0000
    139    0.000029621475911    0.0    2.73     -45.333321089873     -45.333321089873     -45.333217280803     -45.333187659327   0.0000   0.0000   0.0000   0.0000
    140    0.000028388613329    0.0    2.74     -45.333319936679     -45.333319936679     -45.333215935885     -45.333187547272   0.0000   0.0000   0.0000   0.0000
    141    0.000027069138223    0.0    2.74     -45.333318700495     -45.333318700495     -45.333214513884     -45.333187444746   0.0000   0.0000   0.0000   0.0000
    142    0.000026926657144    0.0    2.74     -45.333312432490     -45.333312432490     -45.333208195275     -45.333181268617   0.0000   0.0000   0.0000   0.0000
    143    0.000028719044168    0.0    2.74     -45.333314320434     -45.333314320434     -45.333210157663     -45.333181438618   0.0000   0.0000   0.0000   0.0000
    144    0.000031863688811    0.0    2.74     -45.333311989628     -45.333311989628     -45.333208012978     -45.333176149290   0.0000   0.0000   0.0000   0.0000
    145    0.000035070865547    0.0    2.73     -45.333315184163     -45.333315184163     -45.333211485980     -45.333176415114   0.0000   0.0000   0.0000   0.0000
    146    0.000036833477441    0.0    2.72     -45.333316791908     -45.333316791908     -45.333213336823     -45.333176503346   0.0000   0.0000   0.0000   0.0000
    147    0.000036473181868    0.0    2.72     -45.333316102944     -45.333316102944     -45.333212868316     -45.333176395134   0.0000   0.0000   0.0000   0.0000
    148    0.000034703040034    0.0    2.71     -45.333313927608     -45.333313927608     -45.333210905333     -45.333176202293   0.0000   0.0000   0.0000   0.0000
    149    0.000032888232175    0.0    2.71     -45.333311746512     -45.333311746512     -45.333208944173     -45.333176055940   0.0000   0.0000   0.0000   0.0000
    150    0.000032104628175    0.0    2.70     -45.333310700446     -45.333310700446     -45.333208130133     -45.333176025505   0.0000   0.0000   0.0000   0.0000
    151    0.000033092390967    0.0    2.69     -45.333304569088     -45.333304569088     -45.333202388907     -45.333169296516   0.0000   0.0000   0.0000   0.0000
    152    0.000035740989175    0.0    2.68     -45.333306959149     -45.333306959149     -45.333205290902     -45.333169549913   0.0000   0.0000   0.0000   0.0000
    153    0.000038539823359    0.0    2.66     -45.333309532713     -45.333309532713     -45.333208313605     -45.333169773782   0.0000   0.0000   0.0000   0.0000
    154    0.000039918171668    0.0    2.65     -45.333310567523     -45.333310567523     -45.333209729253     -45.333169811081   0.0000   0.0000   0.0000   0.0000
    155    0.000039587953965    0.0    2.65     -45.333309769979     -45.333309769979     -45.333209252787     -45.333169664833   0.0000   0.0000   0.0000   0.0000
    156    0.000038517990796    0.0    2.64     -45.333308233531     -45.333308233531     -45.333208008878     -45.333169490887   0.0000   0.0000   0.0000   0.0000
    157    0.000038296755271    0.0    2.63     -45.333303233363     -45.333303233363     -45.333203448915     -45.333165152160   0.0000   0.0000   0.0000   0.0000
    158    0.000039875300660    0.0    2.61     -45.333304394737     -45.333304394737     -45.333205213020     -45.333165337719   0.0000   0.0000   0.0000   0.0000
    159    0.000042352960896    0.0    2.59     -45.333306522170     -45.333306522170     -45.333207962212     -45.333165609251   0.0000   0.0000   0.0000   0.0000
    160    0.000043826459017    0.0    2.58     -45.333307538785     -45.333307538785     -45.333209603575     -45.333165777116   0.0000   0.0000   0.0000   0.0000
    161    0.000043115755608    0.0    2.56     -45.333306175136     -45.333306175136     -45.333208841155     -45.333165725400   0.0000   0.0000   0.0000   0.0000
    162    0.000040602097278    0.0    2.55     -45.333302851347     -45.333302851347     -45.333206079576     -45.333165477479   0.0000   0.0000   0.0000   0.0000
    163    0.000038038228160    0.0    2.53     -45.333299484759     -45.333299484759     -45.333203237004     -45.333165198776   0.0000   0.0000   0.0000   0.0000
    164    0.000037356895687    0.0    2.52     -45.333298209524     -45.333298209524     -45.333202463790     -45.333165106894   0.0000   0.0000   0.0000   0.0000
    165    0.000039188624593    0.0    2.51     -45.333299727481     -45.333299727481     -45.333204484676     -45.333165296051   0.0000   0.0000   0.0000   0.0000
    166    0.000042257967434    0.0    2.49     -45.333302611108     -45.333302611108     -45.333207890052     -45.333165632085   0.0000   0.0000   0.0000   0.0000
    167    0.000044288102942    0.0    2.48     -45.333304321103     -45.333304321103     -45.333210144869     -45.333165856766   0.0000   0.0000   0.0000   0.0000
    168    0.000043723106928    0.0    2.46     -45.333303152845     -45.333303152845     -45.333209533912     -45.333165810805   0.0000   0.0000   0.0000   0.0000
    169    0.000041266651415    0.0    2.44     -45.333294539841     -45.333294539841     -45.333201652361     -45.333160385710   0.0000   0.0000   0.0000   0.0000
    170    0.000039168339808    0.0    2.42     -45.333291393924     -45.333291393924     -45.333199379953     -45.333160211613   0.0000   0.0000   0.0000   0.0000
    171    0.000038944755341    0.0    2.40     -45.333290356307     -45.333290356307     -45.333199163203     -45.333160218448   0.0000   0.0000   0.0000   0.0000
    172    0.000040564286691    0.0    2.38     -45.333291377075     -45.333291377075     -45.333200963523     -45.333160399236   0.0000   0.0000   0.0000   0.0000
    173    0.000042783700513    0.0    2.36     -45.333293087475     -45.333293087475     -45.333203430868     -45.333160647167   0.0000   0.0000   0.0000   0.0000
    174    0.000043912695069    0.0    2.34     -45.333293611602     -45.333293611602     -45.333204716212     -45.333160803517   0.0000   0.0000   0.0000   0.0000
    175    0.000042937262227    0.0    2.32     -45.333291791449     -45.333291791449     -45.333203678866     -45.333160741604   0.0000   0.0000   0.0000   0.0000
    176    0.000040334685722    0.0    2.30     -45.333288133054     -45.333288133054     -45.333200823924     -45.333160489238   0.0000   0.0000   0.0000   0.0000
    177    0.000037832828782    0.0    2.28     -45.333284575735     -45.333284575735     -45.333198072775     -45.333160239946   0.0000   0.0000   0.0000   0.0000
    178    0.000037124262939    0.0    2.26     -45.333283032170     -45.333283032170     -45.333197313522     -45.333160189259   0.0000   0.0000   0.0000   0.0000
    179    0.000038584938032    0.0    2.24     -45.333283918718     -45.333283918718     -45.333198945062     -45.333160360124   0.0000   0.0000   0.0000   0.0000
    180    0.000041091308568    0.0    2.22     -45.333285967435     -45.333285967435     -45.333201698952     -45.333160607643   0.0000   0.0000   0.0000   0.0000
    181    0.000042952494606    0.0    2.20     -45.333287304113     -45.333287304113     -45.333203718375     -45.333160765881   0.0000   0.0000   0.0000   0.0000
    182    0.000043063149584    0.0    2.18     -45.333286718568     -45.333286718568     -45.333203820037     -45.333160756887   0.0000   0.0000   0.0000   0.0000
    183    0.000041504647763    0.0    2.16     -45.333284287322     -45.333284287322     -45.333202103492     -45.333160598844   0.0000   0.0000   0.0000   0.0000
    184    0.000039420538937    0.0    2.14     -45.333281239919     -45.333281239919     -45.333199805943     -45.333160385404   0.0000   0.0000   0.0000   0.0000
    185    0.000038305057715    0.0    2.12     -45.333279222753     -45.333279222753     -45.333198562272     -45.333160257215   0.0000   0.0000   0.0000   0.0000
    186    0.000039016707597    0.0    2.10     -45.333279220011     -45.333279220011     -45.333199331831     -45.333160315124   0.0000   0.0000   0.0000   0.0000
    187    0.000041143876678    0.0    2.08     -45.333280804486     -45.333280804486     -45.333201661610     -45.333160517734   0.0000   0.0000   0.0000   0.0000
    188    0.000043320893832    0.0    2.06     -45.333282460184     -45.333282460184     -45.333204021176     -45.333160700282   0.0000   0.0000   0.0000   0.0000
    189    0.000044312610332    0.0    2.05     -45.333282815561     -45.333282815561     -45.333205041909     -45.333160729298   0.0000   0.0000   0.0000   0.0000
    190    0.000043896565260    0.0    2.03     -45.333281646160     -45.333281646160     -45.333204516576     -45.333160620011   0.0000   0.0000   0.0000   0.0000
    191    0.000042804582359    0.0    2.01     -45.333279778624     -45.333279778624     -45.333203293219     -45.333160488636   0.0000   0.0000   0.0000   0.0000
    192    0.000041972921286    0.0    2.00     -45.333278228039     -45.333278228039     -45.333202400743     -45.333160427822   0.0000   0.0000   0.0000   0.0000
    193    0.000041869523027    0.0    1.98     -45.333277481800     -45.333277481800     -45.333202325492     -45.333160455969   0.0000   0.0000   0.0000   0.0000
    194    0.000042305783831    0.0    1.96     -45.333277336696     -45.333277336696     -45.333202849174     -45.333160543391   0.0000   0.0000   0.0000   0.0000
    195    0.000043163612078    0.0    1.94     -45.333273195606     -45.333273195606     -45.333199397610     -45.333156233998   0.0000   0.0000   0.0000   0.0000
    196    0.000044297661060    0.0    1.92     -45.333273779521     -45.333273779521     -45.333200668141     -45.333156370480   0.0000   0.0000   0.0000   0.0000
    197    0.000045031202548    0.0    1.91     -45.333273933611     -45.333273933611     -45.333201457389     -45.333156426186   0.0000   0.0000   0.0000   0.0000
    198    0.000045240711285    0.0    1.89     -45.333268206679     -45.333268206679     -45.333196371806     -45.333151131094   0.0000   0.0000   0.0000   0.0000
    199    0.000045781277446    0.0    1.87     -45.333268118408     -45.333268118408     -45.333196947168     -45.333151165890   0.0000   0.0000   0.0000   0.0000

 * Physical Quantities at step:   200

   from rhoofr: total integrated electronic density
   in g-space =     32.000000   in r-space =    32.000000


                total energy =      -45.33326871150 Hartree a.u.
              kinetic energy =       12.47669 Hartree a.u.
        electrostatic energy =      -41.31449 Hartree a.u.
                         esr =        0.00000 Hartree a.u.
                       eself =      102.12922 Hartree a.u.
      pseudopotential energy =        3.12727 Hartree a.u.
  n-l pseudopotential energy =        4.92051 Hartree a.u.
 exchange-correlation energy =      -24.54324 Hartree a.u.
           average potential =        0.00000 Hartree a.u.



   Eigenvalues (eV), kp =   1 , spin =  1

   -6.44   -2.68   -2.66   -2.66   -2.65   -2.65   -2.63    2.22    2.22    2.23
    2.23    2.23    2.23    4.84    4.86    4.88
 
 
   CELL_PARAMETERS
   10.64076206    0.00000000    0.00000000
    0.00000000   10.64076206    0.00000000
    0.00000000    0.00000000   10.64076206

   System Density [g/cm^3] :              2.0898178971


   System Volume [A.U.^3] :           1204.8089816234


   Center of mass square displacement (a.u.):   0.000000

   ATOMIC_POSITIONS
   Si      0.16505135779815E-03    -0.38302311786389E-02    -0.42898180769665E-02
   Si      0.35756487362876E-02     0.53204078782965E+01     0.53107499013729E+01
   Si      0.53188574742747E+01     0.53252971906707E+01    -0.10242969816605E-01
   Si      0.53202985017743E+01    -0.17872145771290E-02     0.53241636568796E+01
   Si      0.26691023957847E+01     0.26652790534995E+01     0.26603485138377E+01
   Si      0.26640444258529E+01     0.79800472166022E+01     0.79745641860825E+01
   Si      0.79850169378238E+01     0.79848853351225E+01     0.26474705584912E+01
   Si      0.79902275578520E+01     0.26552053820865E+01     0.79782469295678E+01
 
   ATOMIC_VELOCITIES
   Si     -0.15197464208986E-04    -0.95711883256332E-05    -0.18754519820394E-04
   Si      0.40579115364048E-05    -0.44902075719419E-05     0.51762387573654E-05
   Si      0.58172963981817E-05     0.89332600565131E-05     0.59213420312388E-05
   Si     -0.55618665541322E-05     0.23467202027744E-05     0.58432195470330E-05
   Si     -0.47128222774563E-05     0.41651829002734E-05     0.48860207663159E-05
   Si      0.22807836965565E-04     0.49213160226005E-05     0.76609563970827E-05
   Si      0.45988009627400E-05     0.11423854216933E-04    -0.20658622277244E-04
   Si     -0.11809692822829E-04    -0.17728937502042E-04     0.99253645987312E-05
 


   Partial temperatures (for each ionic specie) 
   Species  Temp (K)   Mean Square Displacement (a.u.)
        1   1.86E+00     2.4642E-04
 
  nfi     ekinc              temph  tempp     etot                 enthal               econs                econt              vnhh    xnhh0   vnhp    xnhp0
    200    0.000046916597042    0.0    1.86     -45.333268711502     -45.333268711502     -45.333198206319     -45.333151289722   0.0000   0.0000   0.0000   0.0000

   writing restart file (with schema): ./outdir/si_52.save/
     restart      :      0.04s CPU      0.07s WALL (       2 calls)
    201    0.000047843384814    0.0    1.84     -45.333269066101     -45.333269066101     -45.333199243862     -45.333151400477   0.0000   0.0000   0.0000   0.0000
    202    0.000048363466392    0.0    1.82     -45.333262535357     -45.333262535357     -45.333193443893     -45.333145080426   0.0000   0.0000   0.0000   0.0000
    203    0.000048980731124    0.0    1.80     -45.333257989410     -45.333257989410     -45.333189763797     -45.333140783066   0.0000   0.0000   0.0000   0.0000
    204    0.000050030201242    0.0    1.77     -45.333258193316     -45.333258193316     -45.333190897376     -45.333140867175   0.0000   0.0000   0.0000   0.0000
    205    0.000051297918023    0.0    1.75     -45.333258669607     -45.333258669607     -45.333192239301     -45.333140941383   0.0000   0.0000   0.0000   0.0000
    206    0.000052249576954    0.0    1.73     -45.333258849848     -45.333258849848     -45.333193220302     -45.333140970725   0.0000   0.0000   0.0000   0.0000
    207    0.000052660598593    0.0    1.71     -45.333258511977     -45.333258511977     -45.333193629146     -45.333140968547   0.0000   0.0000   0.0000   0.0000
    208    0.000052555850288    0.0    1.69     -45.333257679533     -45.333257679533     -45.333193512824     -45.333140956973   0.0000   0.0000   0.0000   0.0000
    209    0.000052074862558    0.0    1.67     -45.333256464221     -45.333256464221     -45.333193004132     -45.333140929269   0.0000   0.0000   0.0000   0.0000
    210    0.000051465474063    0.0    1.65     -45.333255101600     -45.333255101600     -45.333192348036     -45.333140882562   0.0000   0.0000   0.0000   0.0000
    211    0.000051061877914    0.0    1.63     -45.333253959412     -45.333253959412     -45.333191908089     -45.333140846211   0.0000   0.0000   0.0000   0.0000
    212    0.000051112701188    0.0    1.61     -45.333253324735     -45.333253324735     -45.333191959426     -45.333140846725   0.0000   0.0000   0.0000   0.0000
    213    0.000051638663525    0.0    1.60     -45.333253214574     -45.333253214574     -45.333192509125     -45.333140870461   0.0000   0.0000   0.0000   0.0000
    214    0.000052504378060    0.0    1.58     -45.333253468558     -45.333253468558     -45.333193396811     -45.333140892433   0.0000   0.0000   0.0000   0.0000
    215    0.000053549455355    0.0    1.56     -45.333253922554     -45.333253922554     -45.333194469818     -45.333140920363   0.0000   0.0000   0.0000   0.0000
    216    0.000054552891201    0.0    1.55     -45.333254357512     -45.333254357512     -45.333195526309     -45.333140973418   0.0000   0.0000   0.0000   0.0000
    217    0.000055149703385    0.0    1.53     -45.333254374450     -45.333254374450     -45.333196180336     -45.333141030633   0.0000   0.0000   0.0000   0.0000
    218    0.000054973150952    0.0    1.51     -45.333253555954     -45.333253555954     -45.333196014593     -45.333141041442   0.0000   0.0000   0.0000   0.0000
    219    0.000053959197095    0.0    1.50     -45.333251835784     -45.333251835784     -45.333194947342     -45.333140988145   0.0000   0.0000   0.0000   0.0000
    220    0.000052442148378    0.0    1.48     -45.333242249241     -45.333242249241     -45.333186028780     -45.333133586631   0.0000   0.0000   0.0000   0.0000
    221    0.000051872596431    0.0    1.46     -45.333241041889     -45.333241041889     -45.333185471507     -45.333133598910   0.0000   0.0000   0.0000   0.0000
    222    0.000053102152704    0.0    1.45     -45.333241845011     -45.333241845011     -45.333186847752     -45.333133745599   0.0000   0.0000   0.0000   0.0000
    223    0.000055144976761    0.0    1.43     -45.333243552875     -45.333243552875     -45.333189054584     -45.333133909608   0.0000   0.0000   0.0000   0.0000
    224    0.000056838450312    0.0    1.42     -45.333244906194     -45.333244906194     -45.333190849706     -45.333134011256   0.0000   0.0000   0.0000   0.0000
    225    0.000057444276063    0.0    1.41     -45.333245115704     -45.333245115704     -45.333191470213     -45.333134025937   0.0000   0.0000   0.0000   0.0000
    226    0.000056883385854    0.0    1.40     -45.333244077445     -45.333244077445     -45.333190835260     -45.333133951874   0.0000   0.0000   0.0000   0.0000
    227    0.000055712004031    0.0    1.39     -45.333242375409     -45.333242375409     -45.333189539995     -45.333133827991   0.0000   0.0000   0.0000   0.0000
    228    0.000054787476316    0.0    1.38     -45.333240961259     -45.333240961259     -45.333188533125     -45.333133745649   0.0000   0.0000   0.0000   0.0000
    229    0.000054661679043    0.0    1.37     -45.333240465975     -45.333240465975     -45.333188433246     -45.333133771567   0.0000   0.0000   0.0000   0.0000
    230    0.000055187657696    0.0    1.36     -45.333240714085     -45.333240714085     -45.333189051337     -45.333133863679   0.0000   0.0000   0.0000   0.0000
    231    0.000055793783337    0.0    1.35     -45.333241035554     -45.333241035554     -45.333189709698     -45.333133915914   0.0000   0.0000   0.0000   0.0000
    232    0.000056136117690    0.0    1.34     -45.333241042754     -45.333241042754     -45.333190021205     -45.333133885087   0.0000   0.0000   0.0000   0.0000
    233    0.000056590465454    0.0    1.33     -45.333235290870     -45.333235290870     -45.333184635423     -45.333128044957   0.0000   0.0000   0.0000   0.0000
    234    0.000058106997628    0.0    1.32     -45.333236433616     -45.333236433616     -45.333186203589     -45.333128096591   0.0000   0.0000   0.0000   0.0000
    235    0.000060767976800    0.0    1.31     -45.333238866472     -45.333238866472     -45.333189026182     -45.333128258205   0.0000   0.0000   0.0000   0.0000
    236    0.000063423874750    0.0    1.30     -45.333241344297     -45.333241344297     -45.333191850318     -45.333128426443   0.0000   0.0000   0.0000   0.0000
    237    0.000064836243708    0.0    1.29     -45.333242564744     -45.333242564744     -45.333193361338     -45.333128525094   0.0000   0.0000   0.0000   0.0000
    238    0.000064294155618    0.0    1.29     -45.333241772289     -45.333241772289     -45.333192799785     -45.333128505629   0.0000   0.0000   0.0000   0.0000
    239    0.000062016137552    0.0    1.28     -45.333239151866     -45.333239151866     -45.333190356893     -45.333128340755   0.0000   0.0000   0.0000   0.0000
    240    0.000059252987185    0.0    1.28     -45.333236004334     -45.333236004334     -45.333187349433     -45.333128096446   0.0000   0.0000   0.0000   0.0000
    241    0.000057729572930    0.0    1.28     -45.333234206008     -45.333234206008     -45.333185674109     -45.333127944536   0.0000   0.0000   0.0000   0.0000
    242    0.000058488248454    0.0    1.27     -45.333234911952     -45.333234911952     -45.333186503454     -45.333128015206   0.0000   0.0000   0.0000   0.0000
    243    0.000061484643974    0.0    1.27     -45.333231933490     -45.333231933490     -45.333183735912     -45.333122251268   0.0000   0.0000   0.0000   0.0000
    244    0.000065623677473    0.0    1.26     -45.333236130533     -45.333236130533     -45.333188218023     -45.333122594345   0.0000   0.0000   0.0000   0.0000
    245    0.000068834635188    0.0    1.25     -45.333239312703     -45.333239312703     -45.333191662030     -45.333122827395   0.0000   0.0000   0.0000   0.0000
    246    0.000069377542856    0.0    1.25     -45.333239657008     -45.333239657008     -45.333192228837     -45.333122851294   0.0000   0.0000   0.0000   0.0000
    247    0.000067042979806    0.0    1.24     -45.333236972306     -45.333236972306     -45.333189712898     -45.333122669918   0.0000   0.0000   0.0000   0.0000
    248    0.000063152588965    0.0    1.24     -45.333232671073     -45.333232671073     -45.333185523026     -45.333122370437   0.0000   0.0000   0.0000   0.0000
    249    0.000059856818791    0.0    1.24     -45.333229067699     -45.333229067699     -45.333181977339     -45.333122120520   0.0000   0.0000   0.0000   0.0000
    250    0.000058902567513    0.0    1.24     -45.333228073873     -45.333228073873     -45.333180994325     -45.333122091757   0.0000   0.0000   0.0000   0.0000
    251    0.000061824966788    0.0    1.24     -45.333225070503     -45.333225070503     -45.333178001440     -45.333116176474   0.0000   0.0000   0.0000   0.0000
    252    0.000067220952159    0.0    1.24     -45.333230987451     -45.333230987451     -45.333183930407     -45.333116709455   0.0000   0.0000   0.0000   0.0000
    253    0.000070974583002    0.0    1.24     -45.333235080481     -45.333235080481     -45.333187997176     -45.333117022593   0.0000   0.0000   0.0000   0.0000
    254    0.000070854480300    0.0    1.24     -45.333234936954     -45.333234936954     -45.333187793802     -45.333116939322   0.0000   0.0000   0.0000   0.0000
    255    0.000067364118786    0.0    1.24     -45.333231167736     -45.333231167736     -45.333183938982     -45.333116574863   0.0000   0.0000   0.0000   0.0000
    256    0.000063036526731    0.0    1.25     -45.333226556859     -45.333226556859     -45.333179230925     -45.333116194398   0.0000   0.0000   0.0000   0.0000
    257    0.000060595904994    0.0    1.25     -45.333224038212     -45.333224038212     -45.333176617947     -45.333116022042   0.0000   0.0000   0.0000   0.0000
    258    0.000061305272541    0.0    1.25     -45.333224949752     -45.333224949752     -45.333177445900     -45.333116140628   0.0000   0.0000   0.0000   0.0000
    259    0.000064343929616    0.0    1.25     -45.333228385078     -45.333228385078     -45.333180804972     -45.333116461042   0.0000   0.0000   0.0000   0.0000
    260    0.000067473758092    0.0    1.25     -45.333231892751     -45.333231892751     -45.333184229113     -45.333116755355   0.0000   0.0000   0.0000   0.0000
    261    0.000068648969271    0.0    1.26     -45.333233226457     -45.333233226457     -45.333185451589     -45.333116802620   0.0000   0.0000   0.0000   0.0000
    262    0.000067502031185    0.0    1.26     -45.333232012305     -45.333232012305     -45.333184080631     -45.333116578600   0.0000   0.0000   0.0000   0.0000
    263    0.000067122959206    0.0    1.26     -45.333221443605     -45.333221443605     -45.333173402089     -45.333106279130   0.0000   0.0000   0.0000   0.0000
    264    0.000069670835288    0.0    1.27     -45.333224247292     -45.333224247292     -45.333176139794     -45.333106468959   0.0000   0.0000   0.0000   0.0000
    265    0.000073462361771    0.0    1.27     -45.333228499313     -45.333228499313     -45.333180279201     -45.333106816840   0.0000   0.0000   0.0000   0.0000
    266    0.000076112839666    0.0    1.27     -45.333231549772     -45.333231549772     -45.333183188368     -45.333107075528   0.0000   0.0000   0.0000   0.0000
    267    0.000075846941806    0.0    1.28     -45.333231435060     -45.333231435060     -45.333182914807     -45.333107067865   0.0000   0.0000   0.0000   0.0000
    268    0.000072727647288    0.0    1.28     -45.333228220966     -45.333228220966     -45.333179531110     -45.333106803463   0.0000   0.0000   0.0000   0.0000
    269    0.000068625797996    0.0    1.29     -45.333223942288     -45.333223942288     -45.333175071735     -45.333106445937   0.0000   0.0000   0.0000   0.0000
    270    0.000066065994034    0.0    1.29     -45.333221345315     -45.333221345315     -45.333172278649     -45.333106212655   0.0000   0.0000   0.0000   0.0000
    271    0.000066669717530    0.0    1.30     -45.333222208703     -45.333222208703     -45.333172927254     -45.333106257536   0.0000   0.0000   0.0000   0.0000
    272    0.000070090917445    0.0    1.30     -45.333226169178     -45.333226169178     -45.333176655901     -45.333106564983   0.0000   0.0000   0.0000   0.0000
    273    0.000074171311979    0.0    1.31     -45.333230859085     -45.333230859085     -45.333181103654     -45.333106932342   0.0000   0.0000   0.0000   0.0000
    274    0.000076353376109    0.0    1.32     -45.333233458178     -45.333233458178     -45.333183458360     -45.333107104984   0.0000   0.0000   0.0000   0.0000
    275    0.000075405533142    0.0    1.32     -45.333232624558     -45.333232624558     -45.333182382018     -45.333106976485   0.0000   0.0000   0.0000   0.0000
    276    0.000072154647211    0.0    1.33     -45.333229306975     -45.333229306975     -45.333178819087     -45.333106664440   0.0000   0.0000   0.0000   0.0000
    277    0.000068726773197    0.0    1.34     -45.333225869013     -45.333225869013     -45.333175120974     -45.333106394201   0.0000   0.0000   0.0000   0.0000
    278    0.000067019658431    0.0    1.34     -45.333224381340     -45.333224381340     -45.333173343302     -45.333106323644   0.0000   0.0000   0.0000   0.0000
    279    0.000067568571472    0.0    1.35     -45.333225399942     -45.333225399942     -45.333174031706     -45.333106463134   0.0000   0.0000   0.0000   0.0000
    280    0.000069425713190    0.0    1.36     -45.333227866801     -45.333227866801     -45.333176128726     -45.333106703013   0.0000   0.0000   0.0000   0.0000
    281    0.000071659798317    0.0    1.37     -45.333221606104     -45.333221606104     -45.333169512052     -45.333097852253   0.0000   0.0000   0.0000   0.0000
    282    0.000073735051496    0.0    1.38     -45.333224225689     -45.333224225689     -45.333171807845     -45.333098072794   0.0000   0.0000   0.0000   0.0000
    283    0.000074642008098    0.0    1.39     -45.333225523198     -45.333225523198     -45.333172790735     -45.333098148727   0.0000   0.0000   0.0000   0.0000
    284    0.000073859488300    0.0    1.40     -45.333224919642     -45.333224919642     -45.333171892089     -45.333098032600   0.0000   0.0000   0.0000   0.0000
    285    0.000072146814497    0.0    1.40     -45.333223286823     -45.333223286823     -45.333169980908     -45.333097834094   0.0000   0.0000   0.0000   0.0000
    286    0.000070828731180    0.0    1.41     -45.333222122636     -45.333222122636     -45.333168542737     -45.333097714006   0.0000   0.0000   0.0000   0.0000
    287    0.000070737084670    0.0    1.42     -45.333222342580     -45.333222342580     -45.333168476520     -45.333097739436   0.0000   0.0000   0.0000   0.0000
    288    0.000071716939989    0.0    1.43     -45.333223754942     -45.333223754942     -45.333169577112     -45.333097860172   0.0000   0.0000   0.0000   0.0000
    289    0.000072914232188    0.0    1.43     -45.333225420935     -45.333225420935     -45.333170900490     -45.333097986257   0.0000   0.0000   0.0000   0.0000
    290    0.000073412144969    0.0    1.44     -45.333226347614     -45.333226347614     -45.333171457110     -45.333098044965   0.0000   0.0000   0.0000   0.0000
    291    0.000072793895742    0.0    1.45     -45.333226067844     -45.333226067844     -45.333170787800     -45.333097993904   0.0000   0.0000   0.0000   0.0000
    292    0.000071433362540    0.0    1.47     -45.333224965611     -45.333224965611     -45.333169282952     -45.333097849589   0.0000   0.0000   0.0000   0.0000
    293    0.000070320986454    0.0    1.48     -45.333224129440     -45.333224129440     -45.333168031387     -45.333097710401   0.0000   0.0000   0.0000   0.0000
    294    0.000070374557539    0.0    1.49     -45.333224598864     -45.333224598864     -45.333168066550     -45.333097691992   0.0000   0.0000   0.0000   0.0000
    295    0.000071699615804    0.0    1.50     -45.333226503439     -45.333226503439     -45.333169509863     -45.333097810247   0.0000   0.0000   0.0000   0.0000
    296    0.000073503178317    0.0    1.51     -45.333228947948     -45.333228947948     -45.333171462597     -45.333097959419   0.0000   0.0000   0.0000   0.0000
    297    0.000074770295634    0.0    1.53     -45.333230796076     -45.333230796076     -45.333172794712     -45.333098024416   0.0000   0.0000   0.0000   0.0000
    298    0.000075023768353    0.0    1.54     -45.333231533704     -45.333231533704     -45.333173008567     -45.333097984798   0.0000   0.0000   0.0000   0.0000
    299    0.000074511584477    0.0    1.55     -45.333231443096     -45.333231443096     -45.333172407803     -45.333097896219   0.0000   0.0000   0.0000   0.0000

 * Physical Quantities at step:   300

   from rhoofr: total integrated electronic density
   in g-space =     32.000000   in r-space =    32.000000


                total energy =      -45.33323119757 Hartree a.u.
              kinetic energy =       12.47676 Hartree a.u.
        electrostatic energy =      -41.31455 Hartree a.u.
                         esr =        0.00000 Hartree a.u.
                       eself =      102.12922 Hartree a.u.
      pseudopotential energy =        3.12729 Hartree a.u.
  n-l pseudopotential energy =        4.92054 Hartree a.u.
 exchange-correlation energy =      -24.54327 Hartree a.u.
           average potential =        0.00000 Hartree a.u.



   Eigenvalues (eV), kp =   1 , spin =  1

   -6.44   -2.68   -2.67   -2.66   -2.65   -2.64   -2.63    2.21    2.22    2.23
    2.23    2.23    2.23    4.86    4.86    4.87
 
 
   CELL_PARAMETERS
   10.64076206    0.00000000    0.00000000
    0.00000000   10.64076206    0.00000000
    0.00000000    0.00000000   10.64076206

   System Density [g/cm^3] :              2.0898178971


   System Volume [A.U.^3] :           1204.8089816234


   Center of mass square displacement (a.u.):   0.000000

   ATOMIC_POSITIONS
   Si     -0.31798438601025E-03    -0.48877703720855E-02    -0.11543822733839E-01
   Si      0.44555719723663E-02     0.53209774263935E+01     0.53149041410669E+01
   Si      0.53251341843711E+01     0.53262091648653E+01    -0.57671335874305E-02
   Si      0.53221724775594E+01     0.13909953210589E-02     0.53222953223168E+01
   Si      0.26637384021847E+01     0.26637308774351E+01     0.26592008756968E+01
   Si      0.26711759379686E+01     0.79809044959803E+01     0.79790851127635E+01
   Si      0.79834803253410E+01     0.79871559491267E+01     0.26404083740210E+01
   Si      0.79814490784454E+01     0.26500234717723E+01     0.79824280887943E+01
 
   ATOMIC_VELOCITIES
   Si      0.14198381840853E-04     0.70168986292105E-05    -0.10284796082431E-04
   Si     -0.14259799836445E-05     0.56885544711762E-05     0.11973887017208E-04
   Si      0.15181157311415E-04    -0.53622774614392E-05     0.12496845828563E-04
   Si      0.84439927427542E-05     0.58064194479801E-05    -0.13894471709396E-04
   Si     -0.14988866701038E-04    -0.85079278993991E-05    -0.50548210496196E-05
   Si      0.76741597293365E-05    -0.32626319607232E-05     0.10539203140113E-04
   Si     -0.76575360043320E-05    -0.47352450463185E-06    -0.72737394421760E-05
   Si     -0.21425308936246E-04    -0.90551072186384E-06     0.14978922976408E-05
 


   Partial temperatures (for each ionic specie) 
   Species  Temp (K)   Mean Square Displacement (a.u.)
        1   1.57E+00     4.1642E-04
 
  nfi     ekinc              temph  tempp     etot                 enthal               econs                econt              vnhh    xnhh0   vnhp    xnhp0
    300    0.000073867270363    0.0    1.57     -45.333231197569     -45.333231197569     -45.333171683134     -45.333097815864   0.0000   0.0000   0.0000   0.0000

   writing restart file (with schema): ./outdir/si_52.save/
     restart      :      0.07s CPU      0.10s WALL (       3 calls)
    301    0.000073675644679    0.0    1.58     -45.333231412697     -45.333231412697     -45.333171455427     -45.333097779782   0.0000   0.0000   0.0000   0.0000
    302    0.000074164899304    0.0    1.59     -45.333232349901     -45.333232349901     -45.333171976199     -45.333097811299   0.0000   0.0000   0.0000   0.0000
    303    0.000075064965626    0.0    1.60     -45.333233744823     -45.333233744823     -45.333172959692     -45.333097894726   0.0000   0.0000   0.0000   0.0000
    304    0.000075774323368    0.0    1.61     -45.333234946714     -45.333234946714     -45.333173731021     -45.333097956698   0.0000   0.0000   0.0000   0.0000
    305    0.000075925934669    0.0    1.62     -45.333228771684     -45.333228771684     -45.333167194603     -45.333091268668   0.0000   0.0000   0.0000   0.0000
    306    0.000076193565895    0.0    1.63     -45.333229291625     -45.333229291625     -45.333167410027     -45.333091216461   0.0000   0.0000   0.0000   0.0000
    307    0.000077291257865    0.0    1.64     -45.333230791774     -45.333230791774     -45.333168558039     -45.333091266781   0.0000   0.0000   0.0000   0.0000
    308    0.000078810718075    0.0    1.65     -45.333232846355     -45.333232846355     -45.333170225838     -45.333091415120   0.0000   0.0000   0.0000   0.0000
    309    0.000080113480715    0.0    1.65     -45.333228321368     -45.333228321368     -45.333165429986     -45.333085316505   0.0000   0.0000   0.0000   0.0000
    310    0.000080935420369    0.0    1.66     -45.333229406668     -45.333229406668     -45.333166353099     -45.333085417678   0.0000   0.0000   0.0000   0.0000
    311    0.000080991270153    0.0    1.66     -45.333229680009     -45.333229680009     -45.333166422383     -45.333085431113   0.0000   0.0000   0.0000   0.0000
    312    0.000080141954905    0.0    1.67     -45.333229017794     -45.333229017794     -45.333165510197     -45.333085368242   0.0000   0.0000   0.0000   0.0000
    313    0.000078832596815    0.0    1.68     -45.333227908021     -45.333227908021     -45.333164100946     -45.333085268349   0.0000   0.0000   0.0000   0.0000
    314    0.000077795043398    0.0    1.69     -45.333227125925     -45.333227125925     -45.333162981467     -45.333085186424   0.0000   0.0000   0.0000   0.0000
    315    0.000077615111651    0.0    1.70     -45.333227294438     -45.333227294438     -45.333162798338     -45.333085183227   0.0000   0.0000   0.0000   0.0000
    316    0.000078313167498    0.0    1.71     -45.333228423314     -45.333228423314     -45.333163590327     -45.333085277160   0.0000   0.0000   0.0000   0.0000
    317    0.000079961294638    0.0    1.71     -45.333220922069     -45.333220922069     -45.333155820326     -45.333075859031   0.0000   0.0000   0.0000   0.0000
    318    0.000082177777547    0.0    1.72     -45.333223532200     -45.333223532200     -45.333158237103     -45.333076059325   0.0000   0.0000   0.0000   0.0000
    319    0.000083719598952    0.0    1.72     -45.333225316322     -45.333225316322     -45.333159865835     -45.333076146236   0.0000   0.0000   0.0000   0.0000
    320    0.000083909688335    0.0    1.73     -45.333225583499     -45.333225583499     -45.333159996087     -45.333076086399   0.0000   0.0000   0.0000   0.0000
    321    0.000083082578810    0.0    1.73     -45.333224764785     -45.333224764785     -45.333159035367     -45.333075952788   0.0000   0.0000   0.0000   0.0000
    322    0.000082130439446    0.0    1.73     -45.333223870257     -45.333223870257     -45.333157976987     -45.333075846548   0.0000   0.0000   0.0000   0.0000
    323    0.000081806914850    0.0    1.74     -45.333223716786     -45.333223716786     -45.333157632582     -45.333075825667   0.0000   0.0000   0.0000   0.0000
    324    0.000082588714316    0.0    1.74     -45.333214182391     -45.333214182391     -45.333148011464     -45.333065422749   0.0000   0.0000   0.0000   0.0000
    325    0.000084731510807    0.0    1.74     -45.333216493717     -45.333216493717     -45.333150340712     -45.333065609201   0.0000   0.0000   0.0000   0.0000
    326    0.000087444917767    0.0    1.74     -45.333219420406     -45.333219420406     -45.333153261702     -45.333065816784   0.0000   0.0000   0.0000   0.0000
    327    0.000089258473023    0.0    1.74     -45.333221364968     -45.333221364968     -45.333155172226     -45.333065913753   0.0000   0.0000   0.0000   0.0000
    328    0.000089454638407    0.0    1.74     -45.333221579679     -45.333221579679     -45.333155310474     -45.333065855835   0.0000   0.0000   0.0000   0.0000
    329    0.000088791601781    0.0    1.75     -45.333216885602     -45.333216885602     -45.333150555754     -45.333061764152   0.0000   0.0000   0.0000   0.0000
    330    0.000088711317555    0.0    1.75     -45.333216865732     -45.333216865732     -45.333150478499     -45.333061767182   0.0000   0.0000   0.0000   0.0000
    331    0.000089566084734    0.0    1.75     -45.333217957443     -45.333217957443     -45.333151448348     -45.333061882263   0.0000   0.0000   0.0000   0.0000
    332    0.000090605573620    0.0    1.75     -45.333219289725     -45.333219289725     -45.333152610115     -45.333062004541   0.0000   0.0000   0.0000   0.0000
    333    0.000091009752737    0.0    1.76     -45.333219931462     -45.333219931462     -45.333153053670     -45.333062043917   0.0000   0.0000   0.0000   0.0000
    334    0.000090518462084    0.0    1.77     -45.333219578831     -45.333219578831     -45.333152498539     -45.333061980077   0.0000   0.0000   0.0000   0.0000
    335    0.000089592842814    0.0    1.77     -45.333218720978     -45.333218720978     -45.333151451336     -45.333061858494   0.0000   0.0000   0.0000   0.0000
    336    0.000089079203712    0.0    1.77     -45.333218286385     -45.333218286385     -45.333150848131     -45.333061768927   0.0000   0.0000   0.0000   0.0000
    337    0.000089567964479    0.0    1.78     -45.333218950196     -45.333218950196     -45.333151362274     -45.333061794309   0.0000   0.0000   0.0000   0.0000
    338    0.000090853947729    0.0    1.78     -45.333220512638     -45.333220512638     -45.333152787131     -45.333061933183   0.0000   0.0000   0.0000   0.0000
    339    0.000091990566148    0.0    1.79     -45.333221924458     -45.333221924458     -45.333154067154     -45.333062076588   0.0000   0.0000   0.0000   0.0000
    340    0.000092027093531    0.0    1.79     -45.333222110029     -45.333222110029     -45.333154124906     -45.333062097813   0.0000   0.0000   0.0000   0.0000
    341    0.000090834781061    0.0    1.79     -45.333220914391     -45.333220914391     -45.333152808128     -45.333061973347   0.0000   0.0000   0.0000   0.0000
    342    0.000089264335624    0.0    1.80     -45.333219281599     -45.333219281599     -45.333151064281     -45.333061799945   0.0000   0.0000   0.0000   0.0000
    343    0.000088512040407    0.0    1.80     -45.333218531748     -45.333218531748     -45.333150212181     -45.333061700141   0.0000   0.0000   0.0000   0.0000
    344    0.000089273480392    0.0    1.80     -45.333219428112     -45.333219428112     -45.333151005444     -45.333061731964   0.0000   0.0000   0.0000   0.0000
    345    0.000091694304781    0.0    1.80     -45.333214163792     -45.333214163792     -45.333145726043     -45.333054031738   0.0000   0.0000   0.0000   0.0000
    346    0.000095295548351    0.0    1.80     -45.333218019541     -45.333218019541     -45.333149625134     -45.333054329585   0.0000   0.0000   0.0000   0.0000
    347    0.000098394596137    0.0    1.80     -45.333221407256     -45.333221407256     -45.333152986832     -45.333054592236   0.0000   0.0000   0.0000   0.0000
    348    0.000099149717023    0.0    1.80     -45.333222312513     -45.333222312513     -45.333153791487     -45.333054641770   0.0000   0.0000   0.0000   0.0000
    349    0.000097214248198    0.0    1.81     -45.333220357616     -45.333220357616     -45.333151668384     -45.333054454136   0.0000   0.0000   0.0000   0.0000
    350    0.000093894135569    0.0    1.81     -45.333216975555     -45.333216975555     -45.333148071590     -45.333054177454   0.0000   0.0000   0.0000   0.0000
    351    0.000091159210070    0.0    1.82     -45.333214295878     -45.333214295878     -45.333145156416     -45.333053997206   0.0000   0.0000   0.0000   0.0000
    352    0.000090356428251    0.0    1.83     -45.333213731016     -45.333213731016     -45.333144357062     -45.333054000633   0.0000   0.0000   0.0000   0.0000
    353    0.000091539766801    0.0    1.83     -45.333215287375     -45.333215287375     -45.333145692004     -45.333054152237   0.0000   0.0000   0.0000   0.0000
    354    0.000093667932710    0.0    1.84     -45.333217817985     -45.333217817985     -45.333148016096     -45.333054348163   0.0000   0.0000   0.0000   0.0000
    355    0.000095350643650    0.0    1.84     -45.333219823156     -45.333219823156     -45.333149825483     -45.333054474839   0.0000   0.0000   0.0000   0.0000
    356    0.000095681537181    0.0    1.85     -45.333220331501     -45.333220331501     -45.333150144887     -45.333054463350   0.0000   0.0000   0.0000   0.0000
    357    0.000094715825297    0.0    1.85     -45.333219423350     -45.333219423350     -45.333149055472     -45.333054339647   0.0000   0.0000   0.0000   0.0000
    358    0.000093277749841    0.0    1.86     -45.333218027194     -45.333218027194     -45.333147491285     -45.333054213536   0.0000   0.0000   0.0000   0.0000
    359    0.000092227463554    0.0    1.86     -45.333217093695     -45.333217093695     -45.333146408860     -45.333054181396   0.0000   0.0000   0.0000   0.0000
    360    0.000091822330179    0.0    1.86     -45.333216874056     -45.333216874056     -45.333146059446     -45.333054237116   0.0000   0.0000   0.0000   0.0000
    361    0.000091723470630    0.0    1.87     -45.333216955871     -45.333216955871     -45.333146020727     -45.333054297256   0.0000   0.0000   0.0000   0.0000
    362    0.000091508685734    0.0    1.87     -45.333216876416     -45.333216876416     -45.333145810643     -45.333054301957   0.0000   0.0000   0.0000   0.0000
    363    0.000091084370322    0.0    1.87     -45.333216577459     -45.333216577459     -45.333145347616     -45.333054263246   0.0000   0.0000   0.0000   0.0000
    364    0.000090660462723    0.0    1.88     -45.333216333033     -45.333216333033     -45.333144886309     -45.333054225846   0.0000   0.0000   0.0000   0.0000
    365    0.000090471856324    0.0    1.89     -45.333216417254     -45.333216417254     -45.333144692416     -45.333054220560   0.0000   0.0000   0.0000   0.0000
    366    0.000090830434696    0.0    1.89     -45.333209625256     -45.333209625256     -45.333137655085     -45.333046824650   0.0000   0.0000   0.0000   0.0000
    367    0.000091978235123    0.0    1.90     -45.333211150365     -45.333211150365     -45.333138972556     -45.333046994321   0.0000   0.0000   0.0000   0.0000
[...]
   2921    0.000645960834926    0.0    1.59     -45.332650674189     -45.332650674189     -45.332590245681     -45.331944284846   0.0000   0.0000   0.0000   0.0000
   2922    0.000648163715493    0.0    1.60     -45.332653102703     -45.332653102703     -45.332592296106     -45.331944132391   0.0000   0.0000   0.0000   0.0000
   2923    0.000653224426297    0.0    1.61     -45.332658909009     -45.332658909009     -45.332597708434     -45.331944484007   0.0000   0.0000   0.0000   0.0000
   2924    0.000658753991893    0.0    1.62     -45.332665410840     -45.332665410840     -45.332603800823     -45.331945046831   0.0000   0.0000   0.0000   0.0000
   2925    0.000661037498196    0.0    1.63     -45.332668364367     -45.332668364367     -45.332606328462     -45.331945290964   0.0000   0.0000   0.0000   0.0000
   2926    0.000659604748912    0.0    1.64     -45.332665704138     -45.332665704138     -45.332603284802     -45.331943680053   0.0000   0.0000   0.0000   0.0000
   2927    0.000655472743770    0.0    1.65     -45.332661830855     -45.332661830855     -45.332599063840     -45.331943591096   0.0000   0.0000   0.0000   0.0000
   2928    0.000648792180031    0.0    1.66     -45.332655382356     -45.332655382356     -45.332592246073     -45.331943453893   0.0000   0.0000   0.0000   0.0000
   2929    0.000640927127594    0.0    1.67     -45.332647540007     -45.332647540007     -45.332584025171     -45.331943098044   0.0000   0.0000   0.0000   0.0000
   2930    0.000634856825194    0.0    1.68     -45.332629568285     -45.332629568285     -45.332565753446     -45.331930896621   0.0000   0.0000   0.0000   0.0000
   2931    0.000633734884770    0.0    1.69     -45.332628829064     -45.332628829064     -45.332564793042     -45.331931058158   0.0000   0.0000   0.0000   0.0000
   2932    0.000637083877936    0.0    1.69     -45.332632977972     -45.332632977972     -45.332568721399     -45.331931637521   0.0000   0.0000   0.0000   0.0000
   2933    0.000641297558630    0.0    1.70     -45.332637741752     -45.332637741752     -45.332573257562     -45.331931960003   0.0000   0.0000   0.0000   0.0000
   2934    0.000644243338488    0.0    1.70     -45.332640703748     -45.332640703748     -45.332575967688     -45.331931724349   0.0000   0.0000   0.0000   0.0000
   2935    0.000647095155109    0.0    1.71     -45.332643491985     -45.332643491985     -45.332578467380     -45.331931372225   0.0000   0.0000   0.0000   0.0000
   2936    0.000651917843456    0.0    1.72     -45.332648649636     -45.332648649636     -45.332583293907     -45.331931376063   0.0000   0.0000   0.0000   0.0000
   2937    0.000659144489646    0.0    1.73     -45.332654534818     -45.332654534818     -45.332588918153     -45.331929773664   0.0000   0.0000   0.0000   0.0000
   2938    0.000667180228443    0.0    1.73     -45.332663156440     -45.332663156440     -45.332597346559     -45.331930166331   0.0000   0.0000   0.0000   0.0000
   2939    0.000673140528318    0.0    1.74     -45.332669750037     -45.332669750037     -45.332603706601     -45.331930566073   0.0000   0.0000   0.0000   0.0000
   2940    0.000673961254119    0.0    1.74     -45.332671134056     -45.332671134056     -45.332604822839     -45.331930861585   0.0000   0.0000   0.0000   0.0000
   2941    0.000667885531829    0.0    1.75     -45.332665148247     -45.332665148247     -45.332598534758     -45.331930649226   0.0000   0.0000   0.0000   0.0000
   2942    0.000656910272444    0.0    1.76     -45.332653594466     -45.332653594466     -45.332586643915     -45.331929733643   0.0000   0.0000   0.0000   0.0000
   2943    0.000647437696453    0.0    1.77     -45.332643463531     -45.332643463531     -45.332576141897     -45.331928704201   0.0000   0.0000   0.0000   0.0000
   2944    0.000646291240156    0.0    1.78     -45.332642476436     -45.332642476436     -45.332574755785     -45.331928464545   0.0000   0.0000   0.0000   0.0000
   2945    0.000655087229844    0.0    1.79     -45.332652428666     -45.332652428666     -45.332584295512     -45.331929208282   0.0000   0.0000   0.0000   0.0000
   2946    0.000670067339226    0.0    1.80     -45.332660267668     -45.332660267668     -45.332591794352     -45.331921727012   0.0000   0.0000   0.0000   0.0000
   2947    0.000684182955476    0.0    1.81     -45.332675647167     -45.332675647167     -45.332606926137     -45.331922743182   0.0000   0.0000   0.0000   0.0000
   2948    0.000689866558891    0.0    1.81     -45.332682090119     -45.332682090119     -45.332613161698     -45.331923295139   0.0000   0.0000   0.0000   0.0000
   2949    0.000683059038517    0.0    1.82     -45.332675296019     -45.332675296019     -45.332606200529     -45.331923141491   0.0000   0.0000   0.0000   0.0000
   2950    0.000665273765257    0.0    1.82     -45.332656614756     -45.332656614756     -45.332587375800     -45.331922102035   0.0000   0.0000   0.0000   0.0000
   2951    0.000644140537921    0.0    1.83     -45.332634144754     -45.332634144754     -45.332564764049     -45.331920623511   0.0000   0.0000   0.0000   0.0000
   2952    0.000629851248671    0.0    1.83     -45.332619148596     -45.332619148596     -45.332549607192     -45.331919755944   0.0000   0.0000   0.0000   0.0000
   2953    0.000628382187249    0.0    1.84     -45.332618227900     -45.332618227900     -45.332548494229     -45.331920112042   0.0000   0.0000   0.0000   0.0000
   2954    0.000637659066352    0.0    1.84     -45.332628804367     -45.332628804367     -45.332558844946     -45.331921185880   0.0000   0.0000   0.0000   0.0000
   2955    0.000650514166874    0.0    1.85     -45.332642776826     -45.332642776826     -45.332572564169     -45.331922050002   0.0000   0.0000   0.0000   0.0000
   2956    0.000660960412253    0.0    1.85     -45.332643681694     -45.332643681694     -45.332573279837     -45.331912319424   0.0000   0.0000   0.0000   0.0000
   2957    0.000666368194932    0.0    1.86     -45.332649266239     -45.332649266239     -45.332578734833     -45.331912366638   0.0000   0.0000   0.0000   0.0000
   2958    0.000666233738742    0.0    1.86     -45.332649130843     -45.332649130843     -45.332578433777     -45.331912200038   0.0000   0.0000   0.0000   0.0000
   2959    0.000661948649845    0.0    1.87     -45.332644632411     -45.332644632411     -45.332573722193     -45.331911773543   0.0000   0.0000   0.0000   0.0000
   2960    0.000656470850711    0.0    1.87     -45.332639021493     -45.332639021493     -45.332567842853     -45.331911372002   0.0000   0.0000   0.0000   0.0000
   2961    0.000652382345837    0.0    1.88     -45.332635272485     -45.332635272485     -45.332563778305     -45.331911395959   0.0000   0.0000   0.0000   0.0000
   2962    0.000649782921625    0.0    1.89     -45.332633281822     -45.332633281822     -45.332561449015     -45.331911666093   0.0000   0.0000   0.0000   0.0000
   2963    0.000647508215128    0.0    1.90     -45.332631232718     -45.332631232718     -45.332559072010     -45.331911563795   0.0000   0.0000   0.0000   0.0000
   2964    0.000646575672323    0.0    1.91     -45.332630005692     -45.332630005692     -45.332557559786     -45.331910984114   0.0000   0.0000   0.0000   0.0000
   2965    0.000650603496875    0.0    1.91     -45.332633868357     -45.332633868357     -45.332561197894     -45.331910594397   0.0000   0.0000   0.0000   0.0000
   2966    0.000661858763159    0.0    1.92     -45.332645637114     -45.332645637114     -45.332572799606     -45.331910940842   0.0000   0.0000   0.0000   0.0000
   2967    0.000677917241724    0.0    1.92     -45.332662672338     -45.332662672338     -45.332589702723     -45.331911785482   0.0000   0.0000   0.0000   0.0000
   2968    0.000692847021191    0.0    1.92     -45.332678511449     -45.332678511449     -45.332605412052     -45.331912565030   0.0000   0.0000   0.0000   0.0000
   2969    0.000700756433957    0.0    1.93     -45.332687026456     -45.332687026456     -45.332613769409     -45.331913012975   0.0000   0.0000   0.0000   0.0000
   2970    0.000698202476009    0.0    1.93     -45.332684665841     -45.332684665841     -45.332611205077     -45.331913002601   0.0000   0.0000   0.0000   0.0000
   2971    0.000685627608566    0.0    1.94     -45.332671633168     -45.332671633168     -45.332597918698     -45.331912291090   0.0000   0.0000   0.0000   0.0000
   2972    0.000668578549044    0.0    1.95     -45.332653570464     -45.332653570464     -45.332579556925     -45.331910978376   0.0000   0.0000   0.0000   0.0000
   2973    0.000656245571799    0.0    1.96     -45.332640513226     -45.332640513226     -45.332566158226     -45.331909912654   0.0000   0.0000   0.0000   0.0000
   2974    0.000655719846060    0.0    1.97     -45.332640473889     -45.332640473889     -45.332565728127     -45.331910008281   0.0000   0.0000   0.0000   0.0000
   2975    0.000666304885183    0.0    1.98     -45.332652708447     -45.332652708447     -45.332577505310     -45.331911200425   0.0000   0.0000   0.0000   0.0000
   2976    0.000679919421756    0.0    1.99     -45.332668188565     -45.332668188565     -45.332592442210     -45.331912522788   0.0000   0.0000   0.0000   0.0000
   2977    0.000687213957516    0.0    2.01     -45.332676750037     -45.332676750037     -45.332600366673     -45.331913152716   0.0000   0.0000   0.0000   0.0000
   2978    0.000683339388860    0.0    2.03     -45.332673391161     -45.332673391161     -45.332596291040     -45.331912951651   0.0000   0.0000   0.0000   0.0000
   2979    0.000669624159177    0.0    2.05     -45.332659599560     -45.332659599560     -45.332581741007     -45.331912116848   0.0000   0.0000   0.0000   0.0000
   2980    0.000652344790914    0.0    2.07     -45.332641902257     -45.332641902257     -45.332563297038     -45.331910952247   0.0000   0.0000   0.0000   0.0000
   2981    0.000640318006135    0.0    2.08     -45.332618413829     -45.332618413829     -45.332539238983     -45.331898920977   0.0000   0.0000   0.0000   0.0000
   2982    0.000640424068808    0.0    2.09     -45.332619219661     -45.332619219661     -45.332539672546     -45.331899248477   0.0000   0.0000   0.0000   0.0000
   2983    0.000651095412767    0.0    2.10     -45.332631630804     -45.332631630804     -45.332551792798     -45.331900697385   0.0000   0.0000   0.0000   0.0000
   2984    0.000662463643760    0.0    2.11     -45.332644642721     -45.332644642721     -45.332564572889     -45.331902109245   0.0000   0.0000   0.0000   0.0000
   2985    0.000664908208196    0.0    2.11     -45.332647546192     -45.332647546192     -45.332567262896     -45.331902354688   0.0000   0.0000   0.0000   0.0000
   2986    0.000656448585760    0.0    2.12     -45.332638362645     -45.332638362645     -45.332557851507     -45.331901402921   0.0000   0.0000   0.0000   0.0000
   2987    0.000643361474450    0.0    2.13     -45.332624227879     -45.332624227879     -45.332543458242     -45.331900096768   0.0000   0.0000   0.0000   0.0000
   2988    0.000634870247830    0.0    2.13     -45.332615160004     -45.332615160004     -45.332534103647     -45.331899233399   0.0000   0.0000   0.0000   0.0000
   2989    0.000638725570567    0.0    2.14     -45.332603363098     -45.332603363098     -45.332522129396     -45.331883403826   0.0000   0.0000   0.0000   0.0000
   2990    0.000655843621233    0.0    2.14     -45.332621676063     -45.332621676063     -45.332540369885     -45.331884526264   0.0000   0.0000   0.0000   0.0000
   2991    0.000678085978055    0.0    2.14     -45.332645671502     -45.332645671502     -45.332564263513     -45.331886177534   0.0000   0.0000   0.0000   0.0000
   2992    0.000693876123133    0.0    2.15     -45.332662693748     -45.332662693748     -45.332581138551     -45.331887262428   0.0000   0.0000   0.0000   0.0000
   2993    0.000695877692512    0.0    2.15     -45.332664544384     -45.332664544384     -45.332582769975     -45.331886892283   0.0000   0.0000   0.0000   0.0000
   2994    0.000686583525174    0.0    2.16     -45.332654027784     -45.332654027784     -45.332571949755     -45.331885366229   0.0000   0.0000   0.0000   0.0000
   2995    0.000676210714128    0.0    2.17     -45.332642651132     -45.332642651132     -45.332560194441     -45.331883983727   0.0000   0.0000   0.0000   0.0000
   2996    0.000674271611566    0.0    2.18     -45.332640923647     -45.332640923647     -45.332558046632     -45.331883775021   0.0000   0.0000   0.0000   0.0000
   2997    0.000682587927234    0.0    2.19     -45.332650555446     -45.332650555446     -45.332567265707     -45.331884677779   0.0000   0.0000   0.0000   0.0000
   2998    0.000695160191939    0.0    2.20     -45.332664727891     -45.332664727891     -45.332581082568     -45.331885922376   0.0000   0.0000   0.0000   0.0000
   2999    0.000703187639154    0.0    2.21     -45.332673856256     -45.332673856256     -45.332589945826     -45.331886758187   0.0000   0.0000   0.0000   0.0000

 * Physical Quantities at step:  3000

   from rhoofr: total integrated electronic density
   in g-space =     32.000000   in r-space =    32.000000


                total energy =      -45.33266780735 Hartree a.u.
              kinetic energy =       12.47723 Hartree a.u.
        electrostatic energy =      -41.31449 Hartree a.u.
                         esr =        0.00000 Hartree a.u.
                       eself =      102.12922 Hartree a.u.
      pseudopotential energy =        3.12725 Hartree a.u.
  n-l pseudopotential energy =        4.92055 Hartree a.u.
 exchange-correlation energy =      -24.54320 Hartree a.u.
           average potential =        0.00000 Hartree a.u.



   Eigenvalues (eV), kp =   1 , spin =  1

   -6.44   -2.67   -2.66   -2.66   -2.65   -2.65   -2.63    2.22    2.22    2.22
    2.23    2.23    2.24    4.85    4.86    4.87
 
 
   CELL_PARAMETERS
   10.64076206    0.00000000    0.00000000
    0.00000000   10.64076206    0.00000000
    0.00000000    0.00000000   10.64076206

   System Density [g/cm^3] :              2.0898178971


   System Volume [A.U.^3] :           1204.8089816234


   Center of mass square displacement (a.u.):   0.000000

   ATOMIC_POSITIONS
   Si      0.10488551766110E-01     0.16703912730110E-02     0.35789913906340E-02
   Si     -0.12120307253520E-02     0.53189550065696E+01     0.53155846879105E+01
   Si      0.53320053810841E+01     0.53224209371102E+01    -0.13642649461936E-01
   Si      0.53213052375502E+01    -0.27114910735271E-02     0.53158017617520E+01
   Si      0.26692866279933E+01     0.26628975408753E+01     0.26540320818267E+01
   Si      0.26556936790302E+01     0.79779733801824E+01     0.79826918089136E+01
   Si      0.79804633533037E+01     0.79829042813026E+01     0.26587221803298E+01
   Si      0.79832571934543E+01     0.26613945642825E+01     0.79642420956768E+01
 
   ATOMIC_VELOCITIES
   Si      0.88835562308189E-05    -0.12624584234975E-04     0.64407365587720E-05
   Si      0.34389789912190E-05    -0.13445656265860E-04    -0.68290468939471E-05
   Si     -0.71560444987687E-05    -0.64091461366134E-05    -0.12283642290076E-04
   Si      0.16272423278040E-04     0.23498444872586E-04     0.51691271705784E-05
   Si     -0.73913480508285E-05     0.12391119634185E-04     0.54360592703839E-06
   Si      0.14695446424496E-04     0.10539694205676E-04     0.57736392808217E-06
   Si     -0.24478149864768E-04     0.62072500622596E-05     0.83794045814943E-05
   Si     -0.42648625103549E-05    -0.20157122137166E-04    -0.19975489821853E-05
 


   Partial temperatures (for each ionic specie) 
   Species  Temp (K)   Mean Square Displacement (a.u.)
        1   2.21E+00     1.2178E-04
 
  nfi     ekinc              temph  tempp     etot                 enthal               econs                econt              vnhh    xnhh0   vnhp    xnhp0
   3000    0.000700255146340    0.0    2.21     -45.332667807355     -45.332667807355     -45.332583892156     -45.331883637010   0.0000   0.0000   0.0000   0.0000

   writing restart file (with schema): ./outdir/si_52.save/
     restart      :      0.69s CPU      0.98s WALL (      30 calls)


   Averaged Physical Quantities
                      accumulated      this run
   ekinc         :        0.00035       0.00035 (AU)
   ekin          :       12.47686      12.47686 (AU)
   epot          :      -62.73033     -62.73033 (AU)
   total energy  :      -45.33295     -45.33295 (AU)
   temperature   :        1.59396       1.59396 (K )
   enthalpy      :      -45.33295     -45.33295 (AU)
   econs         :      -45.33289     -45.33289 (AU)
   pressure      :        0.00000       0.00000 (Gpa)
   volume        :     1204.80898    1204.80898 (AU)



     Called by MAIN_LOOP:
     initialize   :      4.80s CPU      4.82s WALL (       1 calls)
     main_loop    :   1935.38s CPU   1966.55s WALL (    3000 calls)
     cpr_total    :   1936.24s CPU   1967.70s WALL (       1 calls)

     Called by INIT_RUN:
     init_readfil :      0.02s CPU      0.02s WALL (       1 calls)

     Called by CPR:
     cpr_md       :   1936.23s CPU   1967.68s WALL (    3000 calls)
     move_electro :   1900.44s CPU   1931.13s WALL (    3000 calls)

     Called by move_electrons:
     rhoofr       :    190.59s CPU    192.31s WALL (    3000 calls)
     vofrho       :    664.06s CPU    685.47s WALL (    3000 calls)
     dforce       :    119.62s CPU    121.00s WALL (   24000 calls)
     calphi       :      6.68s CPU      6.72s WALL (    3000 calls)
     newd         :    868.06s CPU    874.07s WALL (    3000 calls)
     nlfl         :      0.56s CPU      0.57s WALL (    3000 calls)

     Called by ortho:
     ortho_iter   :      0.18s CPU      0.19s WALL (    3000 calls)
     rsg          :      0.38s CPU      0.38s WALL (    3000 calls)
     rhoset       :      0.86s CPU      0.87s WALL (    3000 calls)
     sigset       :      0.64s CPU      0.65s WALL (    3000 calls)
     tauset       :      0.65s CPU      0.65s WALL (    3000 calls)
     ortho        :     22.85s CPU     22.96s WALL (    3000 calls)
     updatc       :      0.74s CPU      0.75s WALL (    3000 calls)

     Small boxes:
     rhov         :     74.43s CPU     74.94s WALL (    3000 calls)
     fftb         :    543.95s CPU    547.89s WALL ( 3225001 calls)
     set_cc       :     11.75s CPU     11.88s WALL (    3000 calls)
     forcecc      :     12.41s CPU     12.53s WALL (    3000 calls)

     Low-level routines:
     prefor       :     10.81s CPU     10.89s WALL (    6001 calls)
     nlfq         :     30.01s CPU     30.10s WALL (    3000 calls)
     nlsm1        :     19.75s CPU     19.86s WALL (    9001 calls)
     nlsm2        :     29.16s CPU     29.25s WALL (    3000 calls)
     fft          :    396.27s CPU    408.96s WALL (   30030 calls)
     ffts         :     18.08s CPU     18.27s WALL (    6000 calls)
     fftw         :     90.53s CPU     91.50s WALL (   72000 calls)
     fft_scatt_xy :     61.79s CPU     64.16s WALL (  108030 calls)
     fft_scatt_yz :    218.58s CPU    221.58s WALL (  108030 calls)
     fft_scatt_tg :     13.99s CPU     14.20s WALL (   72000 calls)
     betagx       :      2.94s CPU      2.94s WALL (       1 calls)
     qradx        :      1.32s CPU      1.33s WALL (       1 calls)
     nlinit       :      4.76s CPU      4.77s WALL (       1 calls)
     init_dim     :      0.01s CPU      0.02s WALL (       1 calls)
     newnlinit    :      0.03s CPU      0.03s WALL (       1 calls)
     from_restart :      0.01s CPU      0.01s WALL (       1 calls)
     strucf       :      2.29s CPU      2.36s WALL (    3001 calls)
     calbec       :      0.02s CPU      0.02s WALL (    3001 calls)
 
 
     CP           :  32m21.55s CPU  32m53.03s WALL

 
   This run was terminated on:  15:12: 3  11Apr2020            

=------------------------------------------------------------------------------=
   JOB DONE.
=------------------------------------------------------------------------------=
