
     Program BANDS v.6.4.1 starts on 18Jul2019 at 23:51:11 

     This program is part of the open-source Quantum ESPRESSO suite
     for quantum simulation of materials; please cite
         "P. Giannozzi et al., J. Phys.:Condens. Matter 21 395502 (2009);
         "P. Giannozzi et al., J. Phys.:Condens. Matter 29 465901 (2017);
          URL http://www.quantum-espresso.org", 
     in publications or presentations arising from this work. More details at
     http://www.quantum-espresso.org/quote

     Parallel version (MPI), running on     2 processors

     MPI processes distributed on     1 nodes
     R & G space division:  proc/nbgrp/npool/nimage =       2

     Reading data from directory:
     ./outdir/graphene.save/

     IMPORTANT: XC functional enforced from input :
     Exchange-correlation      = PBE ( 1  4  3  4 0 0)
     Any further DFT definition will be discarded
     Please, verify this is what you really want

               file C.pbe-n-kjpaw_psl.1.0.0.UPF: wavefunction(s)  2S 2P renormalized
 
     Parallelization info
     --------------------
     sticks:   dense  smooth     PW     G-vecs:    dense   smooth      PW
     Min         297     120     42                47977    12162    2290
     Max         298     121     43                47982    12183    2297
     Sum         595     241     85                95959    24345    4587
 

     Check: negative core charge=   -0.000002

     negative rho (up, down):  1.263E-04 0.000E+00
     high-symmetry point:  0.0000 0.0000 0.0000   x coordinate   0.0000
     high-symmetry point: -0.3326 0.5760 0.0000   x coordinate   0.6651
     high-symmetry point:  0.0000 0.5760 0.0000   x coordinate   0.9977
     high-symmetry point:  0.0000 0.0000 0.0000   x coordinate   1.5737

     Plottable bands (eV) written to file graphene.bands.dat.gnu
     Bands written to file graphene.bands.dat

 **************************************************************************

                    xk=(   0.00000,   0.00000,   0.00000  )

     point group D_6h(6/mmm)
     there are 12 classes
     the character table:

       E     2C6   2C3   C2    3C2'  3C2'' i     2S3   2S6   s_h   3s_d  3s_v 
A_1g   1.00  1.00  1.00  1.00  1.00  1.00  1.00  1.00  1.00  1.00  1.00  1.00
A_2g   1.00  1.00  1.00  1.00 -1.00 -1.00  1.00  1.00  1.00  1.00 -1.00 -1.00
B_1g   1.00 -1.00  1.00 -1.00  1.00 -1.00  1.00 -1.00  1.00 -1.00  1.00 -1.00
B_2g   1.00 -1.00  1.00 -1.00 -1.00  1.00  1.00 -1.00  1.00 -1.00 -1.00  1.00
E_1g   2.00  1.00 -1.00 -2.00  0.00  0.00  2.00  1.00 -1.00 -2.00  0.00  0.00
E_2g   2.00 -1.00 -1.00  2.00  0.00  0.00  2.00 -1.00 -1.00  2.00  0.00  0.00
A_1u   1.00  1.00  1.00  1.00  1.00  1.00 -1.00 -1.00 -1.00 -1.00 -1.00 -1.00
A_2u   1.00  1.00  1.00  1.00 -1.00 -1.00 -1.00 -1.00 -1.00 -1.00  1.00  1.00
B_1u   1.00 -1.00  1.00 -1.00  1.00 -1.00 -1.00  1.00 -1.00  1.00 -1.00  1.00
B_2u   1.00 -1.00  1.00 -1.00 -1.00  1.00 -1.00  1.00 -1.00  1.00  1.00 -1.00
E_1u   2.00  1.00 -1.00 -2.00  0.00  0.00 -2.00 -1.00  1.00  2.00  0.00  0.00
E_2u   2.00 -1.00 -1.00  2.00  0.00  0.00 -2.00  1.00  1.00 -2.00  0.00  0.00

     the symmetry operations in each class and the name of the first element:

     E        1
                                                                 
     2C6      5    6
                                                                 
     2C3      7    8
                                                                 
     C2       2
                                                                 
     3C2'     4   12   11
                                                                 
     3C2''    3    9   10
                                                                 
     i       13
                                                                 
     2S3     17   18
                                                                 
     2S6     19   20
                                                                 
     s_h     14
                                                                 
     3s_d    16   24   23
                                                                 
     3s_v    15   21   22
                                                                 

     Band symmetry, D_6h(6/mmm) point group:

     e(  1 -  1) =    -21.88013  eV     1   --> A_1g           
     e(  2 -  2) =     -9.97279  eV     1   --> A_2u           
     e(  3 -  4) =     -5.40023  eV     2   --> E_2g           
     e(  5 -  5) =      0.84965  eV     1   --> A_1g           
     e(  6 -  6) =      1.51668  eV     1   --> A_2u           
     e(  7 -  7) =      1.64582  eV     1   --> A_1g           
     e(  8 -  8) =      2.65583  eV     1   --> A_2u           

 **************************************************************************

 **************************************************************************

                    xk=(  -0.01109,   0.01920,   0.00000  )

     point group C_2v (mm2) 
     there are  4 classes
     the character table:

       E     C2    s_v   s_v' 
A_1    1.00  1.00  1.00  1.00
A_2    1.00  1.00 -1.00 -1.00
B_1    1.00 -1.00  1.00 -1.00
B_2    1.00 -1.00 -1.00  1.00

     the symmetry operations in each class and the name of the first element:

     E        1
                                                                 
     C2       2
                                                                 
     s_v      4
                                                                 
     s_v'     3
                                                                 

     Band symmetry, C_2v (mm2)  point group:

     e(  1 -  1) =    -21.87140  eV     1   --> A_1  D_1  S_1  
     e(  2 -  2) =     -9.96234  eV     1   --> B_1  D_3  S_3  
     e(  3 -  3) =     -5.43678  eV     1   --> B_2  D_4  S_4  
     e(  4 -  4) =     -5.41964  eV     1   --> A_1  D_1  S_1  
     e(  5 -  5) =      0.86156  eV     1   --> A_1  D_1  S_1  
     e(  6 -  6) =      1.52877  eV     1   --> B_1  D_3  S_3  
     e(  7 -  7) =      1.65798  eV     1   --> A_1  D_1  S_1  
     e(  8 -  8) =      2.66788  eV     1   --> B_1  D_3  S_3  

 **************************************************************************

 **************************************************************************

                    xk=(  -0.02217,   0.03840,   0.00000  )

     Band symmetry, C_2v (mm2)  point group:

     e(  1 -  1) =    -21.84514  eV     1   --> A_1  D_1  S_1  
     e(  2 -  2) =     -9.93093  eV     1   --> B_1  D_3  S_3  
     e(  3 -  3) =     -5.54436  eV     1   --> B_2  D_4  S_4  
     e(  4 -  4) =     -5.47758  eV     1   --> A_1  D_1  S_1  
     e(  5 -  5) =      0.89731  eV     1   --> A_1  D_1  S_1  
     e(  6 -  6) =      1.56504  eV     1   --> B_1  D_3  S_3  
     e(  7 -  7) =      1.69447  eV     1   --> A_1  D_1  S_1  
     e(  8 -  8) =      2.70402  eV     1   --> B_1  D_3  S_3  

 **************************************************************************

 **************************************************************************

                    xk=(  -0.03326,   0.05760,   0.00000  )

     Band symmetry, C_2v (mm2)  point group:

     e(  1 -  1) =    -21.80141  eV     1   --> A_1  D_1  S_1  
     e(  2 -  2) =     -9.87864  eV     1   --> B_1  D_3  S_3  
     e(  3 -  3) =     -5.71735  eV     1   --> B_2  D_4  S_4  
     e(  4 -  4) =     -5.57295  eV     1   --> A_1  D_1  S_1  
     e(  5 -  5) =      0.95690  eV     1   --> A_1  D_1  S_1  
     e(  6 -  6) =      1.62547  eV     1   --> B_1  D_3  S_3  
     e(  7 -  7) =      1.75528  eV     1   --> A_1  D_1  S_1  
     e(  8 -  8) =      2.76425  eV     1   --> B_1  D_3  S_3  

 **************************************************************************

 **************************************************************************

                    xk=(  -0.04434,   0.07680,   0.00000  )

     Band symmetry, C_2v (mm2)  point group:

     e(  1 -  1) =    -21.74020  eV     1   --> A_1  D_1  S_1  
     e(  2 -  2) =     -9.80550  eV     1   --> B_1  D_3  S_3  
     e(  3 -  3) =     -5.94857  eV     1   --> B_2  D_4  S_4  
     e(  4 -  4) =     -5.70447  eV     1   --> A_1  D_1  S_1  
     e(  5 -  5) =      1.04033  eV     1   --> A_1  D_1  S_1  
     e(  6 -  6) =      1.71006  eV     1   --> B_1  D_3  S_3  
     e(  7 -  7) =      1.84043  eV     1   --> A_1  D_1  S_1  
     e(  8 -  8) =      2.84856  eV     1   --> B_1  D_3  S_3  

 **************************************************************************

 **************************************************************************

                    xk=(  -0.05543,   0.09600,   0.00000  )

     Band symmetry, C_2v (mm2)  point group:

     e(  1 -  1) =    -21.66157  eV     1   --> A_1  D_1  S_1  
     e(  2 -  2) =     -9.71162  eV     1   --> B_1  D_3  S_3  
     e(  3 -  3) =     -6.22916  eV     1   --> B_2  D_4  S_4  
     e(  4 -  4) =     -5.87022  eV     1   --> A_1  D_1  S_1  
     e(  5 -  5) =      1.14761  eV     1   --> A_1  D_1  S_1  
     e(  6 -  6) =      1.81880  eV     1   --> B_1  D_3  S_3  
     e(  7 -  7) =      1.94991  eV     1   --> A_1  D_1  S_1  
     e(  8 -  8) =      2.95692  eV     1   --> B_1  D_3  S_3  

 **************************************************************************

 **************************************************************************

                    xk=(  -0.06651,   0.11520,   0.00000  )

     Band symmetry, C_2v (mm2)  point group:

     e(  1 -  1) =    -21.56554  eV     1   --> A_1  D_1  S_1  
     e(  2 -  2) =     -9.59712  eV     1   --> B_1  D_3  S_3  
     e(  3 -  3) =     -6.54944  eV     1   --> B_2  D_4  S_4  
     e(  4 -  4) =     -6.06749  eV     1   --> A_1  D_1  S_1  
     e(  5 -  5) =      1.27874  eV     1   --> A_1  D_1  S_1  
     e(  6 -  6) =      1.95167  eV     1   --> B_1  D_3  S_3  
     e(  7 -  7) =      2.08372  eV     1   --> A_1  D_1  S_1  
     e(  8 -  8) =      3.08931  eV     1   --> B_1  D_3  S_3  

 **************************************************************************

 **************************************************************************

                    xk=(  -0.07760,   0.13441,   0.00000  )

     Band symmetry, C_2v (mm2)  point group:

     e(  1 -  1) =    -21.45222  eV     1   --> A_1  D_1  S_1  
     e(  2 -  2) =     -9.46224  eV     1   --> B_1  D_3  S_3  
     e(  3 -  3) =     -6.90125  eV     1   --> B_2  D_4  S_4  
     e(  4 -  4) =     -6.29411  eV     1   --> A_1  D_1  S_1  
     e(  5 -  5) =      1.43371  eV     1   --> A_1  D_1  S_1  
     e(  6 -  6) =      2.10862  eV     1   --> B_1  D_3  S_3  
     e(  7 -  7) =      2.24187  eV     1   --> A_1  D_1  S_1  
     e(  8 -  8) =      3.24569  eV     1   --> B_1  D_3  S_3  

 **************************************************************************

 **************************************************************************

                    xk=(  -0.08868,   0.15361,   0.00000  )

     Band symmetry, C_2v (mm2)  point group:

     e(  1 -  1) =    -21.32166  eV     1   --> A_1  D_1  S_1  
     e(  2 -  2) =     -9.30717  eV     1   --> B_1  D_3  S_3  
     e(  3 -  3) =     -7.27667  eV     1   --> B_2  D_4  S_4  
     e(  4 -  4) =     -6.54658  eV     1   --> A_1  D_1  S_1  
     e(  5 -  5) =      1.61252  eV     1   --> A_1  D_1  S_1  
     e(  6 -  6) =      2.28963  eV     1   --> B_1  D_3  S_3  
     e(  7 -  7) =      2.42436  eV     1   --> A_1  D_1  S_1  
     e(  8 -  8) =      3.42602  eV     1   --> B_1  D_3  S_3  

 **************************************************************************

 **************************************************************************

                    xk=(  -0.09977,   0.17281,   0.00000  )

     Band symmetry, C_2v (mm2)  point group:

     e(  1 -  1) =    -21.17391  eV     1   --> A_1  D_1  S_1  
     e(  2 -  2) =     -9.13202  eV     1   --> B_1  D_3  S_3  
     e(  3 -  3) =     -7.66927  eV     1   --> B_2  D_4  S_4  
     e(  4 -  4) =     -6.82195  eV     1   --> A_1  D_1  S_1  
     e(  5 -  5) =      1.81515  eV     1   --> A_1  D_1  S_1  
     e(  6 -  6) =      2.49465  eV     1   --> B_1  D_3  S_3  
     e(  7 -  7) =      2.63119  eV     1   --> A_1  D_1  S_1  
     e(  8 -  8) =      3.63024  eV     1   --> B_1  D_3  S_3  

 **************************************************************************

 **************************************************************************

                    xk=(  -0.11086,   0.19201,   0.00000  )

     Band symmetry, C_2v (mm2)  point group:

     e(  1 -  1) =    -21.00910  eV     1   --> A_1  D_1  S_1  
     e(  2 -  2) =     -8.93721  eV     1   --> B_1  D_3  S_3  
     e(  3 -  3) =     -8.07307  eV     1   --> B_2  D_4  S_4  
     e(  4 -  4) =     -7.11688  eV     1   --> A_1  D_1  S_1  
     e(  5 -  5) =      2.04155  eV     1   --> A_1  D_1  S_1  
     e(  6 -  6) =      2.72362  eV     1   --> B_1  D_3  S_3  
     e(  7 -  7) =      2.86236  eV     1   --> A_1  D_1  S_1  
     e(  8 -  8) =      3.85828  eV     1   --> B_1  D_3  S_3  

 **************************************************************************

 **************************************************************************

                    xk=(  -0.12194,   0.21121,   0.00000  )

     Band symmetry, C_2v (mm2)  point group:

     e(  1 -  1) =    -20.82735  eV     1   --> A_1  D_1  S_1  
     e(  2 -  2) =     -8.72305  eV     1   --> B_1  D_3  S_3  
     e(  3 -  3) =     -8.48381  eV     1   --> B_2  D_4  S_4  
     e(  4 -  4) =     -7.42834  eV     1   --> A_1  D_1  S_1  
     e(  5 -  5) =      2.29171  eV     1   --> A_1  D_1  S_1  
     e(  6 -  6) =      2.97647  eV     1   --> B_1  D_3  S_3  
     e(  7 -  7) =      3.11786  eV     1   --> A_1  D_1  S_1  
     e(  8 -  8) =      4.11003  eV     1   --> B_1  D_3  S_3  

 **************************************************************************

 **************************************************************************

                    xk=(  -0.13303,   0.23041,   0.00000  )

     Band symmetry, C_2v (mm2)  point group:

     e(  1 -  1) =    -20.62879  eV     1   --> A_1  D_1  S_1  
     e(  2 -  2) =     -8.89770  eV     1   --> B_2  D_4  S_4  
     e(  3 -  3) =     -8.48995  eV     1   --> B_1  D_3  S_3  
     e(  4 -  4) =     -7.75327  eV     1   --> A_1  D_1  S_1  
     e(  5 -  5) =      2.56555  eV     1   --> A_1  D_1  S_1  
     e(  6 -  6) =      3.25307  eV     1   --> B_1  D_3  S_3  
     e(  7 -  7) =      3.39770  eV     1   --> A_1  D_1  S_1  
     e(  8 -  8) =      4.38538  eV     1   --> B_1  D_3  S_3  

 **************************************************************************

 **************************************************************************

                    xk=(  -0.14411,   0.24961,   0.00000  )

     Band symmetry, C_2v (mm2)  point group:

     e(  1 -  1) =    -20.41362  eV     1   --> A_1  D_1  S_1  
     e(  2 -  2) =     -9.31145  eV     1   --> B_2  D_4  S_4  
     e(  3 -  3) =     -8.23845  eV     1   --> B_1  D_3  S_3  
     e(  4 -  4) =     -8.08850  eV     1   --> A_1  D_1  S_1  
     e(  5 -  5) =      2.86302  eV     1   --> A_1  D_1  S_1  
     e(  6 -  6) =      3.55330  eV     1   --> B_1  D_3  S_3  
     e(  7 -  7) =      3.70186  eV     1   --> A_1  D_1  S_1  
     e(  8 -  8) =      4.68414  eV     1   --> B_1  D_3  S_3  

 **************************************************************************

 **************************************************************************

                    xk=(  -0.15520,   0.26881,   0.00000  )

     Band symmetry, C_2v (mm2)  point group:

     e(  1 -  1) =    -20.18198  eV     1   --> A_1  D_1  S_1  
     e(  2 -  2) =     -9.72261  eV     1   --> B_2  D_4  S_4  
     e(  3 -  3) =     -8.43135  eV     1   --> A_1  D_1  S_1  
     e(  4 -  4) =     -7.96899  eV     1   --> B_1  D_3  S_3  
     e(  5 -  5) =      3.18402  eV     1   --> A_1  D_1  S_1  
     e(  6 -  6) =      3.87698  eV     1   --> B_1  D_3  S_3  
     e(  7 -  7) =      4.03033  eV     1   --> A_1  D_1  S_1  
     e(  8 -  8) =      4.52901  eV     1   --> A_2  D_2  S_2  

 **************************************************************************

 **************************************************************************

                    xk=(  -0.16628,   0.28801,   0.00000  )

     Band symmetry, C_2v (mm2)  point group:

     e(  1 -  1) =    -19.93415  eV     1   --> A_1  D_1  S_1  
     e(  2 -  2) =    -10.12896  eV     1   --> B_2  D_4  S_4  
     e(  3 -  3) =     -8.77894  eV     1   --> A_1  D_1  S_1  
     e(  4 -  4) =     -7.68233  eV     1   --> B_1  D_3  S_3  
     e(  5 -  5) =      3.52845  eV     1   --> A_1  D_1  S_1  
     e(  6 -  6) =      4.03296  eV     1   --> A_2  D_2  S_2  
     e(  7 -  7) =      4.22382  eV     1   --> B_1  D_3  S_3  
     e(  8 -  8) =      4.38312  eV     1   --> A_1  D_1  S_1  

 **************************************************************************

 **************************************************************************

                    xk=(  -0.17737,   0.30721,   0.00000  )

     Band symmetry, C_2v (mm2)  point group:

     e(  1 -  1) =    -19.67037  eV     1   --> A_1  D_1  S_1  
     e(  2 -  2) =    -10.52910  eV     1   --> B_2  D_4  S_4  
     e(  3 -  3) =     -9.12910  eV     1   --> A_1  D_1  S_1  
     e(  4 -  4) =     -7.37919  eV     1   --> B_1  D_3  S_3  
     e(  5 -  5) =      3.53667  eV     1   --> A_2  D_2  S_2  
     e(  6 -  6) =      3.89617  eV     1   --> A_1  D_1  S_1  
     e(  7 -  7) =      4.59348  eV     1   --> B_1  D_3  S_3  
     e(  8 -  8) =      4.76020  eV     1   --> A_1  D_1  S_1  

 **************************************************************************

 **************************************************************************

                    xk=(  -0.18845,   0.32641,   0.00000  )

     Band symmetry, C_2v (mm2)  point group:

     e(  1 -  1) =    -19.39096  eV     1   --> A_1  D_1  S_1  
     e(  2 -  2) =    -10.92134  eV     1   --> B_2  D_4  S_4  
     e(  3 -  3) =     -9.47960  eV     1   --> A_1  D_1  S_1  
     e(  4 -  4) =     -7.06048  eV     1   --> B_1  D_3  S_3  
     e(  5 -  5) =      3.04318  eV     1   --> A_2  D_2  S_2  
     e(  6 -  6) =      4.28700  eV     1   --> A_1  D_1  S_1  
     e(  7 -  7) =      4.98538  eV     1   --> B_1  D_3  S_3  
     e(  8 -  8) =      5.16156  eV     1   --> A_1  D_1  S_1  

 **************************************************************************

 **************************************************************************

                    xk=(  -0.19954,   0.34561,   0.00000  )

     Band symmetry, C_2v (mm2)  point group:

     e(  1 -  1) =    -19.09637  eV     1   --> A_1  D_1  S_1  
     e(  2 -  2) =    -11.30441  eV     1   --> B_2  D_4  S_4  
     e(  3 -  3) =     -9.82799  eV     1   --> A_1  D_1  S_1  
     e(  4 -  4) =     -6.72737  eV     1   --> B_1  D_3  S_3  
     e(  5 -  5) =      2.55488  eV     1   --> A_2  D_2  S_2  
     e(  6 -  6) =      4.70071  eV     1   --> A_1  D_1  S_1  
     e(  7 -  7) =      5.39867  eV     1   --> B_1  D_3  S_3  
     e(  8 -  8) =      5.58717  eV     1   --> A_1  D_1  S_1  

 **************************************************************************

 **************************************************************************

                    xk=(  -0.21063,   0.36481,   0.00000  )

     Band symmetry, C_2v (mm2)  point group:

     e(  1 -  1) =    -18.78698  eV     1   --> A_1  D_1  S_1  
     e(  2 -  2) =    -11.67743  eV     1   --> B_2  D_4  S_4  
     e(  3 -  3) =    -10.17244  eV     1   --> A_1  D_1  S_1  
     e(  4 -  4) =     -6.38084  eV     1   --> B_1  D_3  S_3  
     e(  5 -  5) =      2.07393  eV     1   --> A_2  D_2  S_2  
     e(  6 -  6) =      5.13699  eV     1   --> A_1  D_1  S_1  
     e(  7 -  7) =      5.83199  eV     1   --> B_1  D_3  S_3  
     e(  8 -  8) =      6.03700  eV     1   --> A_1  D_1  S_1  

 **************************************************************************

 **************************************************************************

                    xk=(  -0.22171,   0.38402,   0.00000  )

     Band symmetry, C_2v (mm2)  point group:

     e(  1 -  1) =    -18.46348  eV     1   --> A_1  D_1  S_1  
     e(  2 -  2) =    -12.03967  eV     1   --> B_2  D_4  S_4  
     e(  3 -  3) =    -10.51105  eV     1   --> A_1  D_1  S_1  
     e(  4 -  4) =     -6.02261  eV     1   --> B_1  D_3  S_3  
     e(  5 -  5) =      1.60197  eV     1   --> A_2  D_2  S_2  
     e(  6 -  6) =      5.59544  eV     1   --> A_1  D_1  S_1  
     e(  7 -  7) =      6.28290  eV     1   --> B_1  D_3  S_3  
     e(  8 -  8) =      6.51101  eV     1   --> A_1  D_1  S_1  

 **************************************************************************

 **************************************************************************

                    xk=(  -0.23280,   0.40322,   0.00000  )

     Band symmetry, C_2v (mm2)  point group:

     e(  1 -  1) =    -18.12657  eV     1   --> A_1  D_1  S_1  
     e(  2 -  2) =    -12.39036  eV     1   --> B_2  D_4  S_4  
     e(  3 -  3) =    -10.84192  eV     1   --> A_1  D_1  S_1  
     e(  4 -  4) =     -5.65427  eV     1   --> B_1  D_3  S_3  
     e(  5 -  5) =      1.14074  eV     1   --> A_2  D_2  S_2  
     e(  6 -  6) =      6.07545  eV     1   --> A_1  D_1  S_1  
     e(  7 -  7) =      6.74692  eV     1   --> B_1  D_3  S_3  
     e(  8 -  8) =      7.00914  eV     1   --> A_1  D_1  S_1  

 **************************************************************************

 **************************************************************************

                    xk=(  -0.24388,   0.42242,   0.00000  )

     Band symmetry, C_2v (mm2)  point group:

     e(  1 -  1) =    -17.77723  eV     1   --> A_1  D_1  S_1  
     e(  2 -  2) =    -12.72894  eV     1   --> B_2  D_4  S_4  
     e(  3 -  3) =    -11.16318  eV     1   --> A_1  D_1  S_1  
     e(  4 -  4) =     -5.27789  eV     1   --> B_1  D_3  S_3  
     e(  5 -  5) =      0.69164  eV     1   --> A_2  D_2  S_2  
     e(  6 -  6) =      6.57621  eV     1   --> A_1  D_1  S_1  
     e(  7 -  7) =      7.21480  eV     1   --> B_1  D_3  S_3  
     e(  8 -  8) =      7.53130  eV     1   --> A_1  D_1  S_1  

 **************************************************************************

 **************************************************************************

                    xk=(  -0.25497,   0.44162,   0.00000  )

     Band symmetry, C_2v (mm2)  point group:

     e(  1 -  1) =    -17.41675  eV     1   --> A_1  D_1  S_1  
     e(  2 -  2) =    -13.05499  eV     1   --> B_2  D_4  S_4  
     e(  3 -  3) =    -11.47287  eV     1   --> A_1  D_1  S_1  
     e(  4 -  4) =     -4.89580  eV     1   --> B_1  D_3  S_3  
     e(  5 -  5) =      0.25589  eV     1   --> A_2  D_2  S_2  
     e(  6 -  6) =      7.09645  eV     1   --> A_1  D_1  S_1  
     e(  7 -  7) =      7.66594  eV     1   --> B_1  D_3  S_3  
     e(  8 -  8) =      8.07736  eV     1   --> A_1  D_1  S_1  

 **************************************************************************

 **************************************************************************

                    xk=(  -0.26605,   0.46082,   0.00000  )

     Band symmetry, C_2v (mm2)  point group:

     e(  1 -  1) =    -17.04696  eV     1   --> A_1  D_1  S_1  
     e(  2 -  2) =    -13.36808  eV     1   --> B_2  D_4  S_4  
     e(  3 -  3) =    -11.76857  eV     1   --> A_1  D_1  S_1  
     e(  4 -  4) =     -4.51079  eV     1   --> B_1  D_3  S_3  
     e(  5 -  5) =     -0.16552  eV     1   --> A_2  D_2  S_2  
     e(  6 -  6) =      7.63420  eV     1   --> A_1  D_1  S_1  
     e(  7 -  7) =      8.05436  eV     1   --> B_1  D_3  S_3  
     e(  8 -  8) =      8.64709  eV     1   --> A_1  D_1  S_1  

 **************************************************************************

 **************************************************************************

                    xk=(  -0.27714,   0.48002,   0.00000  )

     Band symmetry, C_2v (mm2)  point group:

     e(  1 -  1) =    -16.67046  eV     1   --> A_1  D_1  S_1  
     e(  2 -  2) =    -13.66787  eV     1   --> B_2  D_4  S_4  
     e(  3 -  3) =    -12.04754  eV     1   --> A_1  D_1  S_1  
     e(  4 -  4) =     -4.12598  eV     1   --> B_1  D_3  S_3  
     e(  5 -  5) =     -0.57155  eV     1   --> A_2  D_2  S_2  
     e(  6 -  6) =      8.18618  eV     1   --> A_1  D_1  S_1  
     e(  7 -  7) =      8.30688  eV     1   --> B_1  D_3  S_3  
     e(  8 -  8) =      9.24007  eV     1   --> A_1  D_1  S_1  

 **************************************************************************

 **************************************************************************

                    xk=(  -0.28822,   0.49922,   0.00000  )

     Band symmetry, C_2v (mm2)  point group:

     e(  1 -  1) =    -16.29116  eV     1   --> A_1  D_1  S_1  
     e(  2 -  2) =    -13.95413  eV     1   --> B_2  D_4  S_4  
     e(  3 -  3) =    -12.30567  eV     1   --> A_1  D_1  S_1  
     e(  4 -  4) =     -3.74502  eV     1   --> B_1  D_3  S_3  
     e(  5 -  5) =     -0.96162  eV     1   --> A_2  D_2  S_2  
     e(  6 -  6) =      8.39590  eV     1   --> B_1  D_3  S_3  
     e(  7 -  7) =      8.74657  eV     1   --> A_1  D_1  S_1  
     e(  8 -  8) =      9.85536  eV     1   --> A_1  D_1  S_1  

 **************************************************************************

 **************************************************************************

                    xk=(  -0.29931,   0.51842,   0.00000  )

     Band symmetry, C_2v (mm2)  point group:

     e(  1 -  1) =    -15.91542  eV     1   --> A_1  D_1  S_1  
     e(  2 -  2) =    -14.22655  eV     1   --> B_2  D_4  S_4  
     e(  3 -  3) =    -12.53667  eV     1   --> A_1  D_1  S_1  
     e(  4 -  4) =     -3.37203  eV     1   --> B_1  D_3  S_3  
     e(  5 -  5) =     -1.33457  eV     1   --> A_2  D_2  S_2  
     e(  6 -  6) =      8.38172  eV     1   --> B_1  D_3  S_3  
     e(  7 -  7) =      9.30410  eV     1   --> A_1  D_1  S_1  
     e(  8 -  8) =     10.48948  eV     1   --> A_1  D_1  S_1  

 **************************************************************************

 **************************************************************************

                    xk=(  -0.31040,   0.53762,   0.00000  )

     Band symmetry, C_2v (mm2)  point group:

     e(  1 -  1) =    -15.55400  eV     1   --> A_1  D_1  S_1  
     e(  2 -  2) =    -14.48495  eV     1   --> B_2  D_4  S_4  
     e(  3 -  3) =    -12.73015  eV     1   --> A_1  D_1  S_1  
     e(  4 -  4) =     -3.01151  eV     1   --> B_1  D_3  S_3  
     e(  5 -  5) =     -1.68996  eV     1   --> A_2  D_2  S_2  
     e(  6 -  6) =      8.33228  eV     1   --> B_1  D_3  S_3  
     e(  7 -  7) =      9.83460  eV     1   --> A_1  D_1  S_1  
     e(  8 -  8) =     10.66830  eV     1   --> B_2  D_4  S_4  

 **************************************************************************

 **************************************************************************

                    xk=(  -0.32148,   0.55682,   0.00000  )

     Band symmetry, C_2v (mm2)  point group:

     e(  1 -  1) =    -15.22536  eV     1   --> A_1  D_1  S_1  
     e(  2 -  2) =    -14.72923  eV     1   --> B_2  D_4  S_4  
     e(  3 -  3) =    -12.86840  eV     1   --> A_1  D_1  S_1  
     e(  4 -  4) =     -2.66800  eV     1   --> B_1  D_3  S_3  
     e(  5 -  5) =     -2.02733  eV     1   --> A_2  D_2  S_2  
     e(  6 -  6) =      8.28794  eV     1   --> B_1  D_3  S_3  
     e(  7 -  7) =     10.28152  eV     1   --> A_1  D_1  S_1  
     e(  8 -  8) =     10.62254  eV     1   --> B_2  D_4  S_4  

 **************************************************************************

 **************************************************************************

                    xk=(  -0.33257,   0.57602,   0.00000  )

     zone border point and non-symmorphic group 
     symmetry decomposition not available

 **************************************************************************

 **************************************************************************

                    xk=(  -0.32148,   0.57602,   0.00000  )

     zone border point and non-symmorphic group 
     symmetry decomposition not available

 **************************************************************************

 **************************************************************************

                    xk=(  -0.31040,   0.57602,   0.00000  )

     zone border point and non-symmorphic group 
     symmetry decomposition not available

 **************************************************************************

 **************************************************************************

                    xk=(  -0.29931,   0.57602,   0.00000  )

     zone border point and non-symmorphic group 
     symmetry decomposition not available

 **************************************************************************

 **************************************************************************

                    xk=(  -0.28822,   0.57602,   0.00000  )

     zone border point and non-symmorphic group 
     symmetry decomposition not available

 **************************************************************************

 **************************************************************************

                    xk=(  -0.27714,   0.57602,   0.00000  )

     zone border point and non-symmorphic group 
     symmetry decomposition not available

 **************************************************************************

 **************************************************************************

                    xk=(  -0.26605,   0.57602,   0.00000  )

     zone border point and non-symmorphic group 
     symmetry decomposition not available

 **************************************************************************

 **************************************************************************

                    xk=(  -0.25497,   0.57602,   0.00000  )

     zone border point and non-symmorphic group 
     symmetry decomposition not available

 **************************************************************************

 **************************************************************************

                    xk=(  -0.24388,   0.57602,   0.00000  )

     zone border point and non-symmorphic group 
     symmetry decomposition not available

 **************************************************************************

 **************************************************************************

                    xk=(  -0.23280,   0.57602,   0.00000  )

     zone border point and non-symmorphic group 
     symmetry decomposition not available

 **************************************************************************

 **************************************************************************

                    xk=(  -0.22171,   0.57602,   0.00000  )

     zone border point and non-symmorphic group 
     symmetry decomposition not available

 **************************************************************************

 **************************************************************************

                    xk=(  -0.21063,   0.57602,   0.00000  )

     zone border point and non-symmorphic group 
     symmetry decomposition not available

 **************************************************************************

 **************************************************************************

                    xk=(  -0.19954,   0.57602,   0.00000  )

     zone border point and non-symmorphic group 
     symmetry decomposition not available

 **************************************************************************

 **************************************************************************

                    xk=(  -0.18845,   0.57602,   0.00000  )

     zone border point and non-symmorphic group 
     symmetry decomposition not available

 **************************************************************************

 **************************************************************************

                    xk=(  -0.17737,   0.57602,   0.00000  )

     zone border point and non-symmorphic group 
     symmetry decomposition not available

 **************************************************************************

 **************************************************************************

                    xk=(  -0.16628,   0.57602,   0.00000  )

     zone border point and non-symmorphic group 
     symmetry decomposition not available

 **************************************************************************

 **************************************************************************

                    xk=(  -0.15520,   0.57602,   0.00000  )

     zone border point and non-symmorphic group 
     symmetry decomposition not available

 **************************************************************************

 **************************************************************************

                    xk=(  -0.14411,   0.57602,   0.00000  )

     zone border point and non-symmorphic group 
     symmetry decomposition not available

 **************************************************************************

 **************************************************************************

                    xk=(  -0.13303,   0.57602,   0.00000  )

     zone border point and non-symmorphic group 
     symmetry decomposition not available

 **************************************************************************

 **************************************************************************

                    xk=(  -0.12194,   0.57602,   0.00000  )

     zone border point and non-symmorphic group 
     symmetry decomposition not available

 **************************************************************************

 **************************************************************************

                    xk=(  -0.11086,   0.57602,   0.00000  )

     zone border point and non-symmorphic group 
     symmetry decomposition not available

 **************************************************************************

 **************************************************************************

                    xk=(  -0.09977,   0.57602,   0.00000  )

     zone border point and non-symmorphic group 
     symmetry decomposition not available

 **************************************************************************

 **************************************************************************

                    xk=(  -0.08868,   0.57602,   0.00000  )

     zone border point and non-symmorphic group 
     symmetry decomposition not available

 **************************************************************************

 **************************************************************************

                    xk=(  -0.07760,   0.57602,   0.00000  )

     zone border point and non-symmorphic group 
     symmetry decomposition not available

 **************************************************************************

 **************************************************************************

                    xk=(  -0.06651,   0.57602,   0.00000  )

     zone border point and non-symmorphic group 
     symmetry decomposition not available

 **************************************************************************

 **************************************************************************

                    xk=(  -0.05543,   0.57602,   0.00000  )

     zone border point and non-symmorphic group 
     symmetry decomposition not available

 **************************************************************************

 **************************************************************************

                    xk=(  -0.04434,   0.57602,   0.00000  )

     zone border point and non-symmorphic group 
     symmetry decomposition not available

 **************************************************************************

 **************************************************************************

                    xk=(  -0.03326,   0.57602,   0.00000  )

     zone border point and non-symmorphic group 
     symmetry decomposition not available

 **************************************************************************

 **************************************************************************

                    xk=(  -0.02217,   0.57602,   0.00000  )

     zone border point and non-symmorphic group 
     symmetry decomposition not available

 **************************************************************************

 **************************************************************************

                    xk=(  -0.01109,   0.57602,   0.00000  )

     zone border point and non-symmorphic group 
     symmetry decomposition not available

 **************************************************************************

 **************************************************************************

                    xk=(   0.00000,   0.57602,   0.00000  )

     zone border point and non-symmorphic group 
     symmetry decomposition not available

 **************************************************************************

 **************************************************************************

                    xk=(   0.00000,   0.55682,   0.00000  )

     point group C_2v (mm2) 
     there are  4 classes
     the character table:

       E     C2    s_v   s_v' 
A_1    1.00  1.00  1.00  1.00
A_2    1.00  1.00 -1.00 -1.00
B_1    1.00 -1.00  1.00 -1.00
B_2    1.00 -1.00 -1.00  1.00

     the symmetry operations in each class and the name of the first element:

     E        1
                                                                 
     C2       2
                                                                 
     s_v      3
                                                                 
     s_v'     4
                                                                 

     Band symmetry, C_2v (mm2)  point group:

     e(  1 -  1) =    -16.75086  eV     1   --> A_1  D_1  S_1  
     e(  2 -  2) =    -15.47943  eV     1   --> A_1  D_1  S_1  
     e(  3 -  3) =     -8.77704  eV     1   --> B_1  D_3  S_3  
     e(  4 -  4) =     -4.75246  eV     1   --> B_2  D_4  S_4  
     e(  5 -  5) =     -0.61273  eV     1   --> B_2  D_4  S_4  
     e(  6 -  6) =      5.04649  eV     1   --> A_1  D_1  S_1  
     e(  7 -  7) =      8.29321  eV     1   --> A_1  D_1  S_1  
     e(  8 -  8) =      9.06531  eV     1   --> B_2  D_4  S_4  

 **************************************************************************

 **************************************************************************

                    xk=(   0.00000,   0.53762,   0.00000  )

     Band symmetry, C_2v (mm2)  point group:

     e(  1 -  1) =    -16.99982  eV     1   --> A_1  D_1  S_1  
     e(  2 -  2) =    -15.20111  eV     1   --> A_1  D_1  S_1  
     e(  3 -  3) =     -8.75741  eV     1   --> B_1  D_3  S_3  
     e(  4 -  4) =     -4.87495  eV     1   --> B_2  D_4  S_4  
     e(  5 -  5) =     -0.45931  eV     1   --> B_2  D_4  S_4  
     e(  6 -  6) =      5.05638  eV     1   --> A_1  D_1  S_1  
     e(  7 -  7) =      7.80288  eV     1   --> A_1  D_1  S_1  
     e(  8 -  8) =      8.56884  eV     1   --> B_2  D_4  S_4  

 **************************************************************************

 **************************************************************************

                    xk=(   0.00000,   0.51842,   0.00000  )

     Band symmetry, C_2v (mm2)  point group:

     e(  1 -  1) =    -17.29329  eV     1   --> A_1  D_1  S_1  
     e(  2 -  2) =    -14.85888  eV     1   --> A_1  D_1  S_1  
     e(  3 -  3) =     -8.72481  eV     1   --> B_1  D_3  S_3  
     e(  4 -  4) =     -5.06113  eV     1   --> B_2  D_4  S_4  
     e(  5 -  5) =     -0.22218  eV     1   --> B_2  D_4  S_4  
     e(  6 -  6) =      5.07265  eV     1   --> A_1  D_1  S_1  
     e(  7 -  7) =      7.32582  eV     1   --> A_1  D_1  S_1  
     e(  8 -  8) =      8.08438  eV     1   --> B_2  D_4  S_4  

 **************************************************************************

 **************************************************************************

                    xk=(   0.00000,   0.49922,   0.00000  )

     Band symmetry, C_2v (mm2)  point group:

     e(  1 -  1) =    -17.59765  eV     1   --> A_1  D_1  S_1  
     e(  2 -  2) =    -14.48653  eV     1   --> A_1  D_1  S_1  
     e(  3 -  3) =     -8.67929  eV     1   --> B_1  D_3  S_3  
     e(  4 -  4) =     -5.29256  eV     1   --> B_2  D_4  S_4  
     e(  5 -  5) =      0.08020  eV     1   --> B_2  D_4  S_4  
     e(  6 -  6) =      5.09488  eV     1   --> A_1  D_1  S_1  
     e(  7 -  7) =      6.86425  eV     1   --> A_1  D_1  S_1  
     e(  8 -  8) =      7.61470  eV     1   --> B_2  D_4  S_4  

 **************************************************************************

 **************************************************************************

                    xk=(   0.00000,   0.48002,   0.00000  )

     Band symmetry, C_2v (mm2)  point group:

     e(  1 -  1) =    -17.90112  eV     1   --> A_1  D_1  S_1  
     e(  2 -  2) =    -14.09600  eV     1   --> A_1  D_1  S_1  
     e(  3 -  3) =     -8.62100  eV     1   --> B_1  D_3  S_3  
     e(  4 -  4) =     -5.55339  eV     1   --> B_2  D_4  S_4  
     e(  5 -  5) =      0.43126  eV     1   --> B_2  D_4  S_4  
     e(  6 -  6) =      5.12240  eV     1   --> A_1  D_1  S_1  
     e(  7 -  7) =      6.41951  eV     1   --> A_1  D_1  S_1  
     e(  8 -  8) =      7.16089  eV     1   --> B_2  D_4  S_4  

 **************************************************************************

 **************************************************************************

                    xk=(   0.00000,   0.46082,   0.00000  )

     Band symmetry, C_2v (mm2)  point group:

     e(  1 -  1) =    -18.19883  eV     1   --> A_1  D_1  S_1  
     e(  2 -  2) =    -13.69260  eV     1   --> A_1  D_1  S_1  
     e(  3 -  3) =     -8.55016  eV     1   --> B_1  D_3  S_3  
     e(  4 -  4) =     -5.83146  eV     1   --> B_2  D_4  S_4  
     e(  5 -  5) =      0.81834  eV     1   --> B_2  D_4  S_4  
     e(  6 -  6) =      5.15298  eV     1   --> A_1  D_1  S_1  
     e(  7 -  7) =      5.99389  eV     1   --> A_1  D_1  S_1  
     e(  8 -  8) =      6.72357  eV     1   --> B_2  D_4  S_4  

 **************************************************************************

 **************************************************************************

                    xk=(   0.00000,   0.44162,   0.00000  )

     Band symmetry, C_2v (mm2)  point group:

     e(  1 -  1) =    -18.48836  eV     1   --> A_1  D_1  S_1  
     e(  2 -  2) =    -13.27920  eV     1   --> A_1  D_1  S_1  
     e(  3 -  3) =     -8.46700  eV     1   --> B_1  D_3  S_3  
     e(  4 -  4) =     -6.11801  eV     1   --> B_2  D_4  S_4  
     e(  5 -  5) =      1.23169  eV     1   --> B_2  D_4  S_4  
     e(  6 -  6) =      5.17694  eV     1   --> A_1  D_1  S_1  
     e(  7 -  7) =      5.59701  eV     1   --> A_1  D_1  S_1  
     e(  8 -  8) =      6.30319  eV     1   --> B_2  D_4  S_4  

 **************************************************************************

 **************************************************************************

                    xk=(   0.00000,   0.42242,   0.00000  )

     Band symmetry, C_2v (mm2)  point group:

     e(  1 -  1) =    -18.76836  eV     1   --> A_1  D_1  S_1  
     e(  2 -  2) =    -12.85750  eV     1   --> A_1  D_1  S_1  
     e(  3 -  3) =     -8.37182  eV     1   --> B_1  D_3  S_3  
     e(  4 -  4) =     -6.40686  eV     1   --> B_2  D_4  S_4  
     e(  5 -  5) =      1.66433  eV     1   --> B_2  D_4  S_4  
     e(  6 -  6) =      5.08854  eV     1   --> A_1  D_1  S_1  
     e(  7 -  7) =      5.33409  eV     1   --> A_1  D_1  S_1  
     e(  8 -  8) =      5.90012  eV     1   --> B_2  D_4  S_4  

 **************************************************************************

 **************************************************************************

                    xk=(   0.00000,   0.40322,   0.00000  )

     Band symmetry, C_2v (mm2)  point group:

     e(  1 -  1) =    -19.03803  eV     1   --> A_1  D_1  S_1  
     e(  2 -  2) =    -12.42897  eV     1   --> A_1  D_1  S_1  
     e(  3 -  3) =     -8.26521  eV     1   --> B_1  D_3  S_3  
     e(  4 -  4) =     -6.69377  eV     1   --> B_2  D_4  S_4  
     e(  5 -  5) =      2.11039  eV     1   --> B_2  D_4  S_4  
     e(  6 -  6) =      4.76081  eV     1   --> A_1  D_1  S_1  
     e(  7 -  7) =      5.32955  eV     1   --> A_1  D_1  S_1  
     e(  8 -  8) =      5.51473  eV     1   --> B_2  D_4  S_4  

 **************************************************************************

 **************************************************************************

                    xk=(   0.00000,   0.38402,   0.00000  )

     Band symmetry, C_2v (mm2)  point group:

     e(  1 -  1) =    -19.29677  eV     1   --> A_1  D_1  S_1  
     e(  2 -  2) =    -11.99509  eV     1   --> A_1  D_1  S_1  
     e(  3 -  3) =     -8.14746  eV     1   --> B_1  D_3  S_3  
     e(  4 -  4) =     -6.97550  eV     1   --> B_2  D_4  S_4  
     e(  5 -  5) =      2.56515  eV     1   --> B_2  D_4  S_4  
     e(  6 -  6) =      4.40714  eV     1   --> A_1  D_1  S_1  
     e(  7 -  7) =      5.14756  eV     1   --> B_2  D_4  S_4  
     e(  8 -  8) =      5.27510  eV     1   --> A_1  D_1  S_1  

 **************************************************************************

 **************************************************************************

                    xk=(   0.00000,   0.36481,   0.00000  )

     Band symmetry, C_2v (mm2)  point group:

     e(  1 -  1) =    -19.54421  eV     1   --> A_1  D_1  S_1  
     e(  2 -  2) =    -11.55687  eV     1   --> A_1  D_1  S_1  
     e(  3 -  3) =     -8.01903  eV     1   --> B_1  D_3  S_3  
     e(  4 -  4) =     -7.24984  eV     1   --> B_2  D_4  S_4  
     e(  5 -  5) =      3.02379  eV     1   --> B_2  D_4  S_4  
     e(  6 -  6) =      4.06463  eV     1   --> A_1  D_1  S_1  
     e(  7 -  7) =      4.79973  eV     1   --> B_2  D_4  S_4  
     e(  8 -  8) =      4.93579  eV     1   --> A_1  D_1  S_1  

 **************************************************************************

 **************************************************************************

                    xk=(   0.00000,   0.34561,   0.00000  )

     Band symmetry, C_2v (mm2)  point group:

     e(  1 -  1) =    -19.78003  eV     1   --> A_1  D_1  S_1  
     e(  2 -  2) =    -11.11584  eV     1   --> A_1  D_1  S_1  
     e(  3 -  3) =     -7.88044  eV     1   --> B_1  D_3  S_3  
     e(  4 -  4) =     -7.51493  eV     1   --> B_2  D_4  S_4  
     e(  5 -  5) =      3.47851  eV     1   --> B_2  D_4  S_4  
     e(  6 -  6) =      3.73764  eV     1   --> A_1  D_1  S_1  
     e(  7 -  7) =      4.47547  eV     1   --> B_2  D_4  S_4  
     e(  8 -  8) =      4.60021  eV     1   --> A_1  D_1  S_1  

 **************************************************************************

 **************************************************************************

                    xk=(   0.00000,   0.32641,   0.00000  )

     Band symmetry, C_2v (mm2)  point group:

     e(  1 -  1) =    -20.00397  eV     1   --> A_1  D_1  S_1  
     e(  2 -  2) =    -10.67351  eV     1   --> A_1  D_1  S_1  
     e(  3 -  3) =     -7.76956  eV     1   --> B_2  D_4  S_4  
     e(  4 -  4) =     -7.73280  eV     1   --> B_1  D_3  S_3  
     e(  5 -  5) =      3.42731  eV     1   --> A_1  D_1  S_1  
     e(  6 -  6) =      3.87992  eV     1   --> B_2  D_4  S_4  
     e(  7 -  7) =      4.21908  eV     1   --> B_2  D_4  S_4  
     e(  8 -  8) =      4.28162  eV     1   --> A_1  D_1  S_1  

 **************************************************************************

 **************************************************************************

                    xk=(   0.00000,   0.30721,   0.00000  )

     Band symmetry, C_2v (mm2)  point group:

     e(  1 -  1) =    -20.21584  eV     1   --> A_1  D_1  S_1  
     e(  2 -  2) =    -10.23113  eV     1   --> A_1  D_1  S_1  
     e(  3 -  3) =     -8.01263  eV     1   --> B_2  D_4  S_4  
     e(  4 -  4) =     -7.57671  eV     1   --> B_1  D_3  S_3  
     e(  5 -  5) =      3.13411  eV     1   --> A_1  D_1  S_1  
     e(  6 -  6) =      3.80511  eV     1   --> B_2  D_4  S_4  
     e(  7 -  7) =      3.98091  eV     1   --> A_1  D_1  S_1  
     e(  8 -  8) =      4.44088  eV     1   --> B_2  D_4  S_4  

 **************************************************************************

 **************************************************************************

                    xk=(   0.00000,   0.28801,   0.00000  )

     Band symmetry, C_2v (mm2)  point group:

     e(  1 -  1) =    -20.41548  eV     1   --> A_1  D_1  S_1  
     e(  2 -  2) =     -9.79060  eV     1   --> A_1  D_1  S_1  
     e(  3 -  3) =     -8.24341  eV     1   --> B_2  D_4  S_4  
     e(  4 -  4) =     -7.41331  eV     1   --> B_1  D_3  S_3  
     e(  5 -  5) =      2.85828  eV     1   --> A_1  D_1  S_1  
     e(  6 -  6) =      3.54318  eV     1   --> B_2  D_4  S_4  
     e(  7 -  7) =      3.69829  eV     1   --> A_1  D_1  S_1  
     e(  8 -  8) =      4.63221  eV     1   --> B_2  D_4  S_4  

 **************************************************************************

 **************************************************************************

                    xk=(   0.00000,   0.26881,   0.00000  )

     Band symmetry, C_2v (mm2)  point group:

     e(  1 -  1) =    -20.60276  eV     1   --> A_1  D_1  S_1  
     e(  2 -  2) =     -9.35374  eV     1   --> A_1  D_1  S_1  
     e(  3 -  3) =     -8.46125  eV     1   --> B_2  D_4  S_4  
     e(  4 -  4) =     -7.24344  eV     1   --> B_1  D_3  S_3  
     e(  5 -  5) =      2.59995  eV     1   --> A_1  D_1  S_1  
     e(  6 -  6) =      3.28620  eV     1   --> B_2  D_4  S_4  
     e(  7 -  7) =      3.43383  eV     1   --> A_1  D_1  S_1  
     e(  8 -  8) =      4.41194  eV     1   --> B_2  D_4  S_4  

 **************************************************************************

 **************************************************************************

                    xk=(   0.00000,   0.24961,   0.00000  )

     Band symmetry, C_2v (mm2)  point group:

     e(  1 -  1) =    -20.77754  eV     1   --> A_1  D_1  S_1  
     e(  2 -  2) =     -8.92263  eV     1   --> A_1  D_1  S_1  
     e(  3 -  3) =     -8.66560  eV     1   --> B_2  D_4  S_4  
     e(  4 -  4) =     -7.06879  eV     1   --> B_1  D_3  S_3  
     e(  5 -  5) =      2.35924  eV     1   --> A_1  D_1  S_1  
     e(  6 -  6) =      3.04431  eV     1   --> B_2  D_4  S_4  
     e(  7 -  7) =      3.18756  eV     1   --> A_1  D_1  S_1  
     e(  8 -  8) =      4.17556  eV     1   --> B_2  D_4  S_4  

 **************************************************************************

 **************************************************************************

                    xk=(   0.00000,   0.23041,   0.00000  )

     Band symmetry, C_2v (mm2)  point group:

     e(  1 -  1) =    -20.93973  eV     1   --> A_1  D_1  S_1  
     e(  2 -  2) =     -8.85603  eV     1   --> B_2  D_4  S_4  
     e(  3 -  3) =     -8.49992  eV     1   --> A_1  D_1  S_1  
     e(  4 -  4) =     -6.89079  eV     1   --> B_1  D_3  S_3  
     e(  5 -  5) =      2.13620  eV     1   --> A_1  D_1  S_1  
     e(  6 -  6) =      2.81933  eV     1   --> B_2  D_4  S_4  
     e(  7 -  7) =      2.95952  eV     1   --> A_1  D_1  S_1  
     e(  8 -  8) =      3.95280  eV     1   --> B_2  D_4  S_4  

 **************************************************************************

 **************************************************************************

                    xk=(   0.00000,   0.21121,   0.00000  )

     Band symmetry, C_2v (mm2)  point group:

     e(  1 -  1) =    -21.08926  eV     1   --> A_1  D_1  S_1  
     e(  2 -  2) =     -9.03229  eV     1   --> B_2  D_4  S_4  
     e(  3 -  3) =     -8.08830  eV     1   --> A_1  D_1  S_1  
     e(  4 -  4) =     -6.71132  eV     1   --> B_1  D_3  S_3  
     e(  5 -  5) =      1.93088  eV     1   --> A_1  D_1  S_1  
     e(  6 -  6) =      2.61186  eV     1   --> B_2  D_4  S_4  
     e(  7 -  7) =      2.74970  eV     1   --> A_1  D_1  S_1  
     e(  8 -  8) =      3.74664  eV     1   --> B_2  D_4  S_4  

 **************************************************************************

 **************************************************************************

                    xk=(   0.00000,   0.19201,   0.00000  )

     Band symmetry, C_2v (mm2)  point group:

     e(  1 -  1) =    -21.22599  eV     1   --> A_1  D_1  S_1  
     e(  2 -  2) =     -9.19392  eV     1   --> B_2  D_4  S_4  
     e(  3 -  3) =     -7.69080  eV     1   --> A_1  D_1  S_1  
     e(  4 -  4) =     -6.53227  eV     1   --> B_1  D_3  S_3  
     e(  5 -  5) =      1.74334  eV     1   --> A_1  D_1  S_1  
     e(  6 -  6) =      2.42216  eV     1   --> B_2  D_4  S_4  
     e(  7 -  7) =      2.55812  eV     1   --> A_1  D_1  S_1  
     e(  8 -  8) =      3.55789  eV     1   --> B_2  D_4  S_4  

 **************************************************************************

 **************************************************************************

                    xk=(   0.00000,   0.17281,   0.00000  )

     Band symmetry, C_2v (mm2)  point group:

     e(  1 -  1) =    -21.34989  eV     1   --> A_1  D_1  S_1  
     e(  2 -  2) =     -9.34073  eV     1   --> B_2  D_4  S_4  
     e(  3 -  3) =     -7.31090  eV     1   --> A_1  D_1  S_1  
     e(  4 -  4) =     -6.35628  eV     1   --> B_1  D_3  S_3  
     e(  5 -  5) =      1.57360  eV     1   --> A_1  D_1  S_1  
     e(  6 -  6) =      2.25035  eV     1   --> B_2  D_4  S_4  
     e(  7 -  7) =      2.38478  eV     1   --> A_1  D_1  S_1  
     e(  8 -  8) =      3.38683  eV     1   --> B_2  D_4  S_4  

 **************************************************************************

 **************************************************************************

                    xk=(   0.00000,   0.15361,   0.00000  )

     Band symmetry, C_2v (mm2)  point group:

     e(  1 -  1) =    -21.46091  eV     1   --> A_1  D_1  S_1  
     e(  2 -  2) =     -9.47260  eV     1   --> B_2  D_4  S_4  
     e(  3 -  3) =     -6.95263  eV     1   --> A_1  D_1  S_1  
     e(  4 -  4) =     -6.18591  eV     1   --> B_1  D_3  S_3  
     e(  5 -  5) =      1.42169  eV     1   --> A_1  D_1  S_1  
     e(  6 -  6) =      2.09652  eV     1   --> B_2  D_4  S_4  
     e(  7 -  7) =      2.22968  eV     1   --> A_1  D_1  S_1  
     e(  8 -  8) =      3.23361  eV     1   --> B_2  D_4  S_4  

 **************************************************************************

 **************************************************************************

                    xk=(   0.00000,   0.13441,   0.00000  )

     Band symmetry, C_2v (mm2)  point group:

     e(  1 -  1) =    -21.55900  eV     1   --> A_1  D_1  S_1  
     e(  2 -  2) =     -9.58934  eV     1   --> B_2  D_4  S_4  
     e(  3 -  3) =     -6.62033  eV     1   --> A_1  D_1  S_1  
     e(  4 -  4) =     -6.02414  eV     1   --> B_1  D_3  S_3  
     e(  5 -  5) =      1.28763  eV     1   --> A_1  D_1  S_1  
     e(  6 -  6) =      1.96071  eV     1   --> B_2  D_4  S_4  
     e(  7 -  7) =      2.09283  eV     1   --> A_1  D_1  S_1  
     e(  8 -  8) =      3.09831  eV     1   --> B_2  D_4  S_4  

 **************************************************************************

 **************************************************************************

                    xk=(   0.00000,   0.11520,   0.00000  )

     Band symmetry, C_2v (mm2)  point group:

     e(  1 -  1) =    -21.64411  eV     1   --> A_1  D_1  S_1  
     e(  2 -  2) =     -9.69082  eV     1   --> B_2  D_4  S_4  
     e(  3 -  3) =     -6.31834  eV     1   --> A_1  D_1  S_1  
     e(  4 -  4) =     -5.87392  eV     1   --> B_1  D_3  S_3  
     e(  5 -  5) =      1.17142  eV     1   --> A_1  D_1  S_1  
     e(  6 -  6) =      1.84296  eV     1   --> B_2  D_4  S_4  
     e(  7 -  7) =      1.97423  eV     1   --> A_1  D_1  S_1  
     e(  8 -  8) =      2.98098  eV     1   --> B_2  D_4  S_4  

 **************************************************************************

 **************************************************************************

                    xk=(   0.00000,   0.09600,   0.00000  )

     Band symmetry, C_2v (mm2)  point group:

     e(  1 -  1) =    -21.71616  eV     1   --> A_1  D_1  S_1  
     e(  2 -  2) =     -9.77679  eV     1   --> B_2  D_4  S_4  
     e(  3 -  3) =     -6.05150  eV     1   --> A_1  D_1  S_1  
     e(  4 -  4) =     -5.73899  eV     1   --> B_1  D_3  S_3  
     e(  5 -  5) =      1.07310  eV     1   --> A_1  D_1  S_1  
     e(  6 -  6) =      1.74329  eV     1   --> B_2  D_4  S_4  
     e(  7 -  7) =      1.87388  eV     1   --> A_1  D_1  S_1  
     e(  8 -  8) =      2.88167  eV     1   --> B_2  D_4  S_4  

 **************************************************************************

 **************************************************************************

                    xk=(   0.00000,   0.07680,   0.00000  )

     Band symmetry, C_2v (mm2)  point group:

     e(  1 -  1) =    -21.77515  eV     1   --> A_1  D_1  S_1  
     e(  2 -  2) =     -9.84724  eV     1   --> B_2  D_4  S_4  
     e(  3 -  3) =     -5.82470  eV     1   --> A_1  D_1  S_1  
     e(  4 -  4) =     -5.62259  eV     1   --> B_1  D_3  S_3  
     e(  5 -  5) =      0.99265  eV     1   --> A_1  D_1  S_1  
     e(  6 -  6) =      1.66173  eV     1   --> B_2  D_4  S_4  
     e(  7 -  7) =      1.79177  eV     1   --> A_1  D_1  S_1  
     e(  8 -  8) =      2.80039  eV     1   --> B_2  D_4  S_4  

 **************************************************************************

 **************************************************************************

                    xk=(   0.00000,   0.05760,   0.00000  )

     Band symmetry, C_2v (mm2)  point group:

     e(  1 -  1) =    -21.82108  eV     1   --> A_1  D_1  S_1  
     e(  2 -  2) =     -9.90215  eV     1   --> B_2  D_4  S_4  
     e(  3 -  3) =     -5.64256  eV     1   --> A_1  D_1  S_1  
     e(  4 -  4) =     -5.52783  eV     1   --> B_1  D_3  S_3  
     e(  5 -  5) =      0.93008  eV     1   --> A_1  D_1  S_1  
     e(  6 -  6) =      1.59828  eV     1   --> B_2  D_4  S_4  
     e(  7 -  7) =      1.72792  eV     1   --> A_1  D_1  S_1  
     e(  8 -  8) =      2.73715  eV     1   --> B_2  D_4  S_4  

 **************************************************************************

 **************************************************************************

                    xk=(   0.00000,   0.03840,   0.00000  )

     Band symmetry, C_2v (mm2)  point group:

     e(  1 -  1) =    -21.85389  eV     1   --> A_1  D_1  S_1  
     e(  2 -  2) =     -9.94140  eV     1   --> B_2  D_4  S_4  
     e(  3 -  3) =     -5.50923  eV     1   --> A_1  D_1  S_1  
     e(  4 -  4) =     -5.45784  eV     1   --> B_1  D_3  S_3  
     e(  5 -  5) =      0.88540  eV     1   --> A_1  D_1  S_1  
     e(  6 -  6) =      1.55295  eV     1   --> B_2  D_4  S_4  
     e(  7 -  7) =      1.68231  eV     1   --> A_1  D_1  S_1  
     e(  8 -  8) =      2.69197  eV     1   --> B_2  D_4  S_4  

 **************************************************************************

 **************************************************************************

                    xk=(   0.00000,   0.01920,   0.00000  )

     Band symmetry, C_2v (mm2)  point group:

     e(  1 -  1) =    -21.87358  eV     1   --> A_1  D_1  S_1  
     e(  2 -  2) =     -9.96495  eV     1   --> B_2  D_4  S_4  
     e(  3 -  3) =     -5.42768  eV     1   --> A_1  D_1  S_1  
     e(  4 -  4) =     -5.41490  eV     1   --> B_1  D_3  S_3  
     e(  5 -  5) =      0.85858  eV     1   --> A_1  D_1  S_1  
     e(  6 -  6) =      1.52575  eV     1   --> B_2  D_4  S_4  
     e(  7 -  7) =      1.65494  eV     1   --> A_1  D_1  S_1  
     e(  8 -  8) =      2.66487  eV     1   --> B_2  D_4  S_4  

 **************************************************************************

 **************************************************************************

                    xk=(   0.00000,   0.00000,   0.00000  )

     point group D_6h(6/mmm)
     there are 12 classes
     the character table:

       E     2C6   2C3   C2    3C2'  3C2'' i     2S3   2S6   s_h   3s_d  3s_v 
A_1g   1.00  1.00  1.00  1.00  1.00  1.00  1.00  1.00  1.00  1.00  1.00  1.00
A_2g   1.00  1.00  1.00  1.00 -1.00 -1.00  1.00  1.00  1.00  1.00 -1.00 -1.00
B_1g   1.00 -1.00  1.00 -1.00  1.00 -1.00  1.00 -1.00  1.00 -1.00  1.00 -1.00
B_2g   1.00 -1.00  1.00 -1.00 -1.00  1.00  1.00 -1.00  1.00 -1.00 -1.00  1.00
E_1g   2.00  1.00 -1.00 -2.00  0.00  0.00  2.00  1.00 -1.00 -2.00  0.00  0.00
E_2g   2.00 -1.00 -1.00  2.00  0.00  0.00  2.00 -1.00 -1.00  2.00  0.00  0.00
A_1u   1.00  1.00  1.00  1.00  1.00  1.00 -1.00 -1.00 -1.00 -1.00 -1.00 -1.00
A_2u   1.00  1.00  1.00  1.00 -1.00 -1.00 -1.00 -1.00 -1.00 -1.00  1.00  1.00
B_1u   1.00 -1.00  1.00 -1.00  1.00 -1.00 -1.00  1.00 -1.00  1.00 -1.00  1.00
B_2u   1.00 -1.00  1.00 -1.00 -1.00  1.00 -1.00  1.00 -1.00  1.00  1.00 -1.00
E_1u   2.00  1.00 -1.00 -2.00  0.00  0.00 -2.00 -1.00  1.00  2.00  0.00  0.00
E_2u   2.00 -1.00 -1.00  2.00  0.00  0.00 -2.00  1.00  1.00 -2.00  0.00  0.00

     the symmetry operations in each class and the name of the first element:

     E        1
                                                                 
     2C6      5    6
                                                                 
     2C3      7    8
                                                                 
     C2       2
                                                                 
     3C2'     4   12   11
                                                                 
     3C2''    3    9   10
                                                                 
     i       13
                                                                 
     2S3     17   18
                                                                 
     2S6     19   20
                                                                 
     s_h     14
                                                                 
     3s_d    16   24   23
                                                                 
     3s_v    15   21   22
                                                                 

     Band symmetry, D_6h(6/mmm) point group:

     e(  1 -  1) =    -21.88013  eV     1   --> A_1g           
     e(  2 -  2) =     -9.97279  eV     1   --> A_2u           
     e(  3 -  4) =     -5.40023  eV     2   --> E_2g           
     e(  5 -  5) =      0.84965  eV     1   --> A_1g           
     e(  6 -  6) =      1.51668  eV     1   --> A_2u           
     e(  7 -  7) =      1.64582  eV     1   --> A_1g           
     e(  8 -  8) =      2.65583  eV     1   --> A_2u           

 **************************************************************************
 
     BANDS        :     41.99s CPU     43.85s WALL

 
   This run was terminated on:  23:51:55  18Jul2019            

=------------------------------------------------------------------------------=
   JOB DONE.
=------------------------------------------------------------------------------=
