
     Program PWSCF v.6.4.1 starts on 18Jul2019 at 23:49:42 

     This program is part of the open-source Quantum ESPRESSO suite
     for quantum simulation of materials; please cite
         "P. Giannozzi et al., J. Phys.:Condens. Matter 21 395502 (2009);
         "P. Giannozzi et al., J. Phys.:Condens. Matter 29 465901 (2017);
          URL http://www.quantum-espresso.org", 
     in publications or presentations arising from this work. More details at
     http://www.quantum-espresso.org/quote

     Parallel version (MPI), running on     2 processors

     MPI processes distributed on     1 nodes
     R & G space division:  proc/nbgrp/npool/nimage =       2
     Reading input from graphene.3_bands.in

     Current dimensions of program PWSCF are:
     Max number of different atomic species (ntypx) = 10
     Max number of k-points (npk) =  40000
     Max angular momentum in pseudopotentials (lmaxx) =  3

     Atomic positions and unit cell read from directory:
     ./outdir/graphene.save/
 
               file C.pbe-n-kjpaw_psl.1.0.0.UPF: wavefunction(s)  2S 2P renormalized

     Subspace diagonalization in iterative solution of the eigenvalue problem:
     a serial algorithm will be used

     Message from routine setup:
     DEPRECATED: symmetry with ibrav=0, use correct ibrav instead
 
     Parallelization info
     --------------------
     sticks:   dense  smooth     PW     G-vecs:    dense   smooth      PW
     Min         297     120     42                47977    12162    2290
     Max         298     121     43                47982    12183    2297
     Sum         595     241     85                95959    24345    4587
 


     bravais-lattice index     =            0
     lattice parameter (alat)  =       4.6487  a.u.
     unit-cell volume          =     710.6031 (a.u.)^3
     number of atoms/cell      =            2
     number of atomic types    =            1
     number of electrons       =         8.00
     number of Kohn-Sham states=            8
     kinetic-energy cutoff     =      40.0000  Ry
     charge density cutoff     =     400.0000  Ry
     Exchange-correlation      = SLA PW PBX PBC ( 1  4  3  4 0 0)

     celldm(1)=   4.648726  celldm(2)=   0.000000  celldm(3)=   0.000000
     celldm(4)=   0.000000  celldm(5)=   0.000000  celldm(6)=   0.000000

     crystal axes: (cart. coord. in units of alat)
               a(1) = (   1.002305   0.000000   0.000000 )  
               a(2) = (  -0.501152   0.868021   0.000000 )  
               a(3) = (   0.000000   0.000000   8.130081 )  

     reciprocal axes: (cart. coord. in units 2 pi/alat)
               b(1) = (  0.997700  0.576023  0.000000 )  
               b(2) = (  0.000000  1.152045  0.000000 )  
               b(3) = (  0.000000  0.000000  0.123000 )  


     PseudoPot. # 1 for C  read from file:
     /home/anonymous/quantumEspresso_2019/SSSP_precision_pseudos/C.pbe-n-kjpaw_psl.1.0.0.UPF
     MD5 check sum: 5d2aebdfa2cae82b50a7e79e9516da0f
     Pseudo is Projector augmented-wave + core cor, Zval =  4.0
     Generated using "atomic" code by A. Dal Corso v.5.1
     Shape of augmentation charge: PSQ
     Using radial grid of 1073 points,  4 beta functions with: 
                l(1) =   0
                l(2) =   0
                l(3) =   1
                l(4) =   1
     Q(r) pseudized with 0 coefficients 


     atomic species   valence    mass     pseudopotential
        C              4.00    12.01070     C ( 1.00)

     24 Sym. Ops., with inversion, found (18 have fractional translation)



   Cartesian axes

     site n.     atom                  positions (alat units)
         1           C   tau(   1) = (   0.0000000   0.0000000   2.0325203  )
         2           C   tau(   2) = (  -0.0000000   0.5786810   2.0325203  )

     number of k points=    91  Marzari-Vanderbilt smearing, width (Ry)=  0.0001
                       cart. coord. in units 2pi/alat
        k(    1) = (   0.0000000   0.0000000   0.0000000), wk =   0.0219780
        k(    2) = (  -0.0110856   0.0192008   0.0000000), wk =   0.0219780
        k(    3) = (  -0.0221711   0.0384015   0.0000000), wk =   0.0219780
        k(    4) = (  -0.0332567   0.0576023   0.0000000), wk =   0.0219780
        k(    5) = (  -0.0443422   0.0768030   0.0000000), wk =   0.0219780
        k(    6) = (  -0.0554278   0.0960038   0.0000000), wk =   0.0219780
        k(    7) = (  -0.0665134   0.1152045   0.0000000), wk =   0.0219780
        k(    8) = (  -0.0775989   0.1344053   0.0000000), wk =   0.0219780
        k(    9) = (  -0.0886845   0.1536060   0.0000000), wk =   0.0219780
        k(   10) = (  -0.0997700   0.1728068   0.0000000), wk =   0.0219780
        k(   11) = (  -0.1108556   0.1920075   0.0000000), wk =   0.0219780
        k(   12) = (  -0.1219412   0.2112083   0.0000000), wk =   0.0219780
        k(   13) = (  -0.1330267   0.2304090   0.0000000), wk =   0.0219780
        k(   14) = (  -0.1441123   0.2496098   0.0000000), wk =   0.0219780
        k(   15) = (  -0.1551978   0.2688106   0.0000000), wk =   0.0219780
        k(   16) = (  -0.1662834   0.2880113   0.0000000), wk =   0.0219780
        k(   17) = (  -0.1773690   0.3072121   0.0000000), wk =   0.0219780
        k(   18) = (  -0.1884545   0.3264128   0.0000000), wk =   0.0219780
        k(   19) = (  -0.1995401   0.3456136   0.0000000), wk =   0.0219780
        k(   20) = (  -0.2106256   0.3648143   0.0000000), wk =   0.0219780
        k(   21) = (  -0.2217112   0.3840151   0.0000000), wk =   0.0219780
        k(   22) = (  -0.2327968   0.4032158   0.0000000), wk =   0.0219780
        k(   23) = (  -0.2438823   0.4224166   0.0000000), wk =   0.0219780
        k(   24) = (  -0.2549679   0.4416173   0.0000000), wk =   0.0219780
        k(   25) = (  -0.2660534   0.4608181   0.0000000), wk =   0.0219780
        k(   26) = (  -0.2771390   0.4800188   0.0000000), wk =   0.0219780
        k(   27) = (  -0.2882246   0.4992196   0.0000000), wk =   0.0219780
        k(   28) = (  -0.2993101   0.5184204   0.0000000), wk =   0.0219780
        k(   29) = (  -0.3103957   0.5376211   0.0000000), wk =   0.0219780
        k(   30) = (  -0.3214813   0.5568219   0.0000000), wk =   0.0219780
        k(   31) = (  -0.3325668   0.5760226   0.0000000), wk =   0.0219780
        k(   32) = (  -0.3214813   0.5760226   0.0000000), wk =   0.0219780
        k(   33) = (  -0.3103957   0.5760226   0.0000000), wk =   0.0219780
        k(   34) = (  -0.2993101   0.5760226   0.0000000), wk =   0.0219780
        k(   35) = (  -0.2882246   0.5760226   0.0000000), wk =   0.0219780
        k(   36) = (  -0.2771390   0.5760226   0.0000000), wk =   0.0219780
        k(   37) = (  -0.2660534   0.5760226   0.0000000), wk =   0.0219780
        k(   38) = (  -0.2549679   0.5760226   0.0000000), wk =   0.0219780
        k(   39) = (  -0.2438823   0.5760226   0.0000000), wk =   0.0219780
        k(   40) = (  -0.2327968   0.5760226   0.0000000), wk =   0.0219780
        k(   41) = (  -0.2217112   0.5760226   0.0000000), wk =   0.0219780
        k(   42) = (  -0.2106256   0.5760226   0.0000000), wk =   0.0219780
        k(   43) = (  -0.1995401   0.5760226   0.0000000), wk =   0.0219780
        k(   44) = (  -0.1884545   0.5760226   0.0000000), wk =   0.0219780
        k(   45) = (  -0.1773690   0.5760226   0.0000000), wk =   0.0219780
        k(   46) = (  -0.1662834   0.5760226   0.0000000), wk =   0.0219780
        k(   47) = (  -0.1551978   0.5760226   0.0000000), wk =   0.0219780
        k(   48) = (  -0.1441123   0.5760226   0.0000000), wk =   0.0219780
        k(   49) = (  -0.1330267   0.5760226   0.0000000), wk =   0.0219780
        k(   50) = (  -0.1219412   0.5760226   0.0000000), wk =   0.0219780
        k(   51) = (  -0.1108556   0.5760226   0.0000000), wk =   0.0219780
        k(   52) = (  -0.0997700   0.5760226   0.0000000), wk =   0.0219780
        k(   53) = (  -0.0886845   0.5760226   0.0000000), wk =   0.0219780
        k(   54) = (  -0.0775989   0.5760226   0.0000000), wk =   0.0219780
        k(   55) = (  -0.0665134   0.5760226   0.0000000), wk =   0.0219780
        k(   56) = (  -0.0554278   0.5760226   0.0000000), wk =   0.0219780
        k(   57) = (  -0.0443422   0.5760226   0.0000000), wk =   0.0219780
        k(   58) = (  -0.0332567   0.5760226   0.0000000), wk =   0.0219780
        k(   59) = (  -0.0221711   0.5760226   0.0000000), wk =   0.0219780
        k(   60) = (  -0.0110856   0.5760226   0.0000000), wk =   0.0219780
        k(   61) = (   0.0000000   0.5760226   0.0000000), wk =   0.0219780
        k(   62) = (   0.0000000   0.5568219   0.0000000), wk =   0.0219780
        k(   63) = (   0.0000000   0.5376211   0.0000000), wk =   0.0219780
        k(   64) = (   0.0000000   0.5184204   0.0000000), wk =   0.0219780
        k(   65) = (   0.0000000   0.4992196   0.0000000), wk =   0.0219780
        k(   66) = (   0.0000000   0.4800188   0.0000000), wk =   0.0219780
        k(   67) = (   0.0000000   0.4608181   0.0000000), wk =   0.0219780
        k(   68) = (   0.0000000   0.4416173   0.0000000), wk =   0.0219780
        k(   69) = (   0.0000000   0.4224166   0.0000000), wk =   0.0219780
        k(   70) = (   0.0000000   0.4032158   0.0000000), wk =   0.0219780
        k(   71) = (   0.0000000   0.3840151   0.0000000), wk =   0.0219780
        k(   72) = (   0.0000000   0.3648143   0.0000000), wk =   0.0219780
        k(   73) = (   0.0000000   0.3456136   0.0000000), wk =   0.0219780
        k(   74) = (   0.0000000   0.3264128   0.0000000), wk =   0.0219780
        k(   75) = (   0.0000000   0.3072121   0.0000000), wk =   0.0219780
        k(   76) = (   0.0000000   0.2880113   0.0000000), wk =   0.0219780
        k(   77) = (   0.0000000   0.2688106   0.0000000), wk =   0.0219780
        k(   78) = (   0.0000000   0.2496098   0.0000000), wk =   0.0219780
        k(   79) = (   0.0000000   0.2304090   0.0000000), wk =   0.0219780
        k(   80) = (   0.0000000   0.2112083   0.0000000), wk =   0.0219780
        k(   81) = (   0.0000000   0.1920075   0.0000000), wk =   0.0219780
        k(   82) = (   0.0000000   0.1728068   0.0000000), wk =   0.0219780
        k(   83) = (   0.0000000   0.1536060   0.0000000), wk =   0.0219780
        k(   84) = (   0.0000000   0.1344053   0.0000000), wk =   0.0219780
        k(   85) = (   0.0000000   0.1152045   0.0000000), wk =   0.0219780
        k(   86) = (   0.0000000   0.0960038   0.0000000), wk =   0.0219780
        k(   87) = (   0.0000000   0.0768030   0.0000000), wk =   0.0219780
        k(   88) = (   0.0000000   0.0576023   0.0000000), wk =   0.0219780
        k(   89) = (   0.0000000   0.0384015   0.0000000), wk =   0.0219780
        k(   90) = (   0.0000000   0.0192008   0.0000000), wk =   0.0219780
        k(   91) = (   0.0000000   0.0000000   0.0000000), wk =   0.0219780

     Dense  grid:    95959 G-vectors     FFT dimensions: (  30,  30, 250)

     Smooth grid:    24345 G-vectors     FFT dimensions: (  24,  24, 160)

     Estimated max dynamical RAM per process >      47.94 MB

     Estimated total dynamical RAM >      95.87 MB

     Check: negative core charge=   -0.000002

     The potential is recalculated from file :
     ./outdir/graphene.save/charge-density


     negative rho (up, down):  1.263E-04 0.000E+00
     Starting wfcs are    8 randomized atomic wfcs
     Checking if some PAW data can be deallocated... 

     Band Structure Calculation
     Davidson diagonalization with overlap

     ethr =  1.25E-12,  avg # of iterations = 37.3

     total cpu time spent up to now is       48.2 secs

     End of band structure calculation

          k = 0.0000 0.0000 0.0000 (  3053 PWs)   bands (ev):

   -21.8801  -9.9728  -5.4002  -5.4002   0.8496   1.5167   1.6458   2.6558

          k =-0.0111 0.0192 0.0000 (  3063 PWs)   bands (ev):

   -21.8714  -9.9623  -5.4368  -5.4196   0.8616   1.5288   1.6580   2.6679

          k =-0.0222 0.0384 0.0000 (  3067 PWs)   bands (ev):

   -21.8451  -9.9309  -5.5444  -5.4776   0.8973   1.5650   1.6945   2.7040

          k =-0.0333 0.0576 0.0000 (  3061 PWs)   bands (ev):

   -21.8014  -9.8786  -5.7173  -5.5729   0.9569   1.6255   1.7553   2.7642

          k =-0.0443 0.0768 0.0000 (  3055 PWs)   bands (ev):

   -21.7402  -9.8055  -5.9486  -5.7045   1.0403   1.7101   1.8404   2.8486

          k =-0.0554 0.0960 0.0000 (  3059 PWs)   bands (ev):

   -21.6616  -9.7116  -6.2292  -5.8702   1.1476   1.8188   1.9499   2.9569

          k =-0.0665 0.1152 0.0000 (  3041 PWs)   bands (ev):

   -21.5655  -9.5971  -6.5494  -6.0675   1.2787   1.9517   2.0837   3.0893

          k =-0.0776 0.1344 0.0000 (  3049 PWs)   bands (ev):

   -21.4522  -9.4622  -6.9013  -6.2941   1.4337   2.1086   2.2419   3.2457

          k =-0.0887 0.1536 0.0000 (  3057 PWs)   bands (ev):

   -21.3217  -9.3072  -7.2767  -6.5466   1.6125   2.2896   2.4244   3.4260

          k =-0.0998 0.1728 0.0000 (  3063 PWs)   bands (ev):

   -21.1739  -9.1320  -7.6693  -6.8220   1.8151   2.4947   2.6312   3.6302

          k =-0.1109 0.1920 0.0000 (  3051 PWs)   bands (ev):

   -21.0091  -8.9372  -8.0731  -7.1169   2.0416   2.7236   2.8624   3.8583

          k =-0.1219 0.2112 0.0000 (  3053 PWs)   bands (ev):

   -20.8273  -8.7231  -8.4838  -7.4283   2.2917   2.9765   3.1179   4.1100

          k =-0.1330 0.2304 0.0000 (  3049 PWs)   bands (ev):

   -20.6288  -8.8977  -8.4900  -7.7533   2.5656   3.2531   3.3977   4.3854

          k =-0.1441 0.2496 0.0000 (  3049 PWs)   bands (ev):

   -20.4136  -9.3114  -8.2384  -8.0885   2.8630   3.5533   3.7019   4.6841

          k =-0.1552 0.2688 0.0000 (  3043 PWs)   bands (ev):

   -20.1820  -9.7226  -8.4314  -7.9690   3.1840   3.8770   4.0303   4.5290

          k =-0.1663 0.2880 0.0000 (  3031 PWs)   bands (ev):

   -19.9341 -10.1290  -8.7789  -7.6823   3.5285   4.0330   4.2238   4.3831

          k =-0.1774 0.3072 0.0000 (  3039 PWs)   bands (ev):

   -19.6704 -10.5291  -9.1291  -7.3792   3.5367   3.8962   4.5935   4.7602

          k =-0.1885 0.3264 0.0000 (  3043 PWs)   bands (ev):

   -19.3910 -10.9213  -9.4796  -7.0605   3.0432   4.2870   4.9854   5.1616

          k =-0.1995 0.3456 0.0000 (  3047 PWs)   bands (ev):

   -19.0964 -11.3044  -9.8280  -6.7274   2.5549   4.7007   5.3987   5.5872

          k =-0.2106 0.3648 0.0000 (  3037 PWs)   bands (ev):

   -18.7870 -11.6774 -10.1724  -6.3808   2.0739   5.1370   5.8320   6.0370

          k =-0.2217 0.3840 0.0000 (  3037 PWs)   bands (ev):

   -18.4635 -12.0397 -10.5110  -6.0226   1.6020   5.5954   6.2829   6.5110

          k =-0.2328 0.4032 0.0000 (  3037 PWs)   bands (ev):

   -18.1266 -12.3904 -10.8419  -5.6543   1.1407   6.0755   6.7469   7.0091

          k =-0.2439 0.4224 0.0000 (  3031 PWs)   bands (ev):

   -17.7772 -12.7289 -11.1632  -5.2779   0.6916   6.5762   7.2148   7.5313

          k =-0.2550 0.4416 0.0000 (  3025 PWs)   bands (ev):

   -17.4167 -13.0550 -11.4729  -4.8958   0.2559   7.0964   7.6659   8.0774

          k =-0.2661 0.4608 0.0000 (  3011 PWs)   bands (ev):

   -17.0470 -13.3681 -11.7686  -4.5108  -0.1655   7.6342   8.0544   8.6471

          k =-0.2771 0.4800 0.0000 (  3007 PWs)   bands (ev):

   -16.6705 -13.6679 -12.0475  -4.1260  -0.5716   8.1862   8.3069   9.2401

          k =-0.2882 0.4992 0.0000 (  3007 PWs)   bands (ev):

   -16.2912 -13.9541 -12.3057  -3.7450  -0.9616   8.3959   8.7466   9.8554

          k =-0.2993 0.5184 0.0000 (  3001 PWs)   bands (ev):

   -15.9154 -14.2266 -12.5367  -3.3720  -1.3346   8.3817   9.3041  10.4895

          k =-0.3104 0.5376 0.0000 (  2997 PWs)   bands (ev):

   -15.5540 -14.4850 -12.7301  -3.0115  -1.6900   8.3323   9.8346  10.6683

          k =-0.3215 0.5568 0.0000 (  3009 PWs)   bands (ev):

   -15.2254 -14.7292 -12.8684  -2.6680  -2.0273   8.2879  10.2815  10.6225

          k =-0.3326 0.5760 0.0000 (  3009 PWs)   bands (ev):

   -14.9592 -14.9592 -12.9223  -2.3462  -2.3462   8.2702  10.5311  10.5311

          k =-0.3215 0.5760 0.0000 (  3011 PWs)   bands (ev):

   -15.0687 -14.8608 -12.9068  -2.4986  -2.1948   8.2752  10.4699  10.5546

          k =-0.3104 0.5760 0.0000 (  3003 PWs)   bands (ev):

   -15.1746 -14.7902 -12.8585  -2.6461  -2.0505   8.2906  10.4003  10.5242

          k =-0.2993 0.5760 0.0000 (  2998 PWs)   bands (ev):

   -15.2769 -14.7479 -12.7772  -2.7888  -1.9136   8.3169  10.3236  10.4563

          k =-0.2882 0.5760 0.0000 (  3002 PWs)   bands (ev):

   -15.3755 -14.7317 -12.6655  -2.9266  -1.7845   8.3543  10.2414  10.3605

          k =-0.2771 0.5760 0.0000 (  3000 PWs)   bands (ev):

   -15.4705 -14.7372 -12.5277  -3.0595  -1.6634   8.4027  10.1551  10.2377

          k =-0.2661 0.5760 0.0000 (  3000 PWs)   bands (ev):

   -15.5618 -14.7595 -12.3693  -3.1875  -1.5506   8.4617  10.0662  10.0802

          k =-0.2550 0.5760 0.0000 (  3008 PWs)   bands (ev):

   -15.6495 -14.7941 -12.1950  -3.3105  -1.4462   8.5306   9.8793   9.9758

          k =-0.2439 0.5760 0.0000 (  3008 PWs)   bands (ev):

   -15.7334 -14.8372 -12.0090  -3.4284  -1.3500   8.6084   9.6372   9.8850

          k =-0.2328 0.5760 0.0000 (  3004 PWs)   bands (ev):

   -15.8136 -14.8859 -11.8147  -3.5413  -1.2622   8.6936   9.3666   9.7948

          k =-0.2217 0.5760 0.0000 (  3004 PWs)   bands (ev):

   -15.8902 -14.9378 -11.6149  -3.6491  -1.1825   8.7846   9.0789   9.7059

          k =-0.2106 0.5760 0.0000 (  3016 PWs)   bands (ev):

   -15.9631 -14.9915 -11.4116  -3.7519  -1.1105   8.7818   8.8794   9.6189

          k =-0.1995 0.5760 0.0000 (  3012 PWs)   bands (ev):

   -16.0322 -15.0457 -11.2067  -3.8495  -1.0460   8.4813   8.9754   9.5344

          k =-0.1885 0.5760 0.0000 (  3004 PWs)   bands (ev):

   -16.0976 -15.0993 -11.0018  -3.9418  -0.9885   8.1807   9.0701   9.4528

          k =-0.1774 0.5760 0.0000 (  2998 PWs)   bands (ev):

   -16.1593 -15.1517 -10.7983  -4.0291  -0.9377   7.8828   9.1605   9.3746

          k =-0.1663 0.5760 0.0000 (  3000 PWs)   bands (ev):

   -16.2173 -15.2025 -10.5977  -4.1111  -0.8930   7.5905   9.2440   9.3001

          k =-0.1552 0.5760 0.0000 (  3014 PWs)   bands (ev):

   -16.2716 -15.2511 -10.4010  -4.1880  -0.8541   7.3056   9.2294   9.3179

          k =-0.1441 0.5760 0.0000 (  3014 PWs)   bands (ev):

   -16.3221 -15.2973 -10.2096  -4.2596  -0.8202   7.0303   9.1629   9.3371

          k =-0.1330 0.5760 0.0000 (  3014 PWs)   bands (ev):

   -16.3689 -15.3407 -10.0249  -4.3259  -0.7911   6.7660   9.1008   9.2696

          k =-0.1219 0.5760 0.0000 (  3014 PWs)   bands (ev):

   -16.4120 -15.3812  -9.8479  -4.3870  -0.7662   6.5149   9.0432   9.2073

          k =-0.1109 0.5760 0.0000 (  3012 PWs)   bands (ev):

   -16.4513 -15.4185  -9.6800  -4.4428  -0.7450   6.2784   8.9902   9.1502

          k =-0.0998 0.5760 0.0000 (  3020 PWs)   bands (ev):

   -16.4870 -15.4527  -9.5227  -4.4934  -0.7272   6.0581   8.9419   9.0984

          k =-0.0887 0.5760 0.0000 (  3038 PWs)   bands (ev):

   -16.5188 -15.4835  -9.3773  -4.5387  -0.7126   5.8556   8.8985   9.0519

          k =-0.0776 0.5760 0.0000 (  3034 PWs)   bands (ev):

   -16.5469 -15.5109  -9.2449  -4.5786  -0.7003   5.6727   8.8601   9.0108

          k =-0.0665 0.5760 0.0000 (  3038 PWs)   bands (ev):

   -16.5713 -15.5347  -9.1271  -4.6133  -0.6904   5.5106   8.8266   8.9751

          k =-0.0554 0.5760 0.0000 (  3034 PWs)   bands (ev):

   -16.5919 -15.5550  -9.0248  -4.6426  -0.6824   5.3708   8.7982   8.9448

          k =-0.0443 0.5760 0.0000 (  3038 PWs)   bands (ev):

   -16.6088 -15.5716  -8.9394  -4.6667  -0.6762   5.2544   8.7749   8.9200

          k =-0.0333 0.5760 0.0000 (  3040 PWs)   bands (ev):

   -16.6219 -15.5846  -8.8719  -4.6853  -0.6717   5.1627   8.7568   8.9007

          k =-0.0222 0.5760 0.0000 (  3044 PWs)   bands (ev):

   -16.6313 -15.5939  -8.8230  -4.6987  -0.6685   5.0965   8.7438   8.8869

          k =-0.0111 0.5760 0.0000 (  3044 PWs)   bands (ev):

   -16.6369 -15.5995  -8.7935  -4.7067  -0.6666   5.0565   8.7360   8.8786

          k = 0.0000 0.5760 0.0000 (  3052 PWs)   bands (ev):

   -16.6388 -15.6013  -8.7837  -4.7094  -0.6660   5.0431   8.7334   8.8758

          k = 0.0000 0.5568 0.0000 (  3046 PWs)   bands (ev):

   -16.7509 -15.4794  -8.7770  -4.7525  -0.6127   5.0465   8.2932   9.0653

          k = 0.0000 0.5376 0.0000 (  3042 PWs)   bands (ev):

   -16.9998 -15.2011  -8.7574  -4.8749  -0.4593   5.0564   7.8029   8.5688

          k = 0.0000 0.5184 0.0000 (  3048 PWs)   bands (ev):

   -17.2933 -14.8589  -8.7248  -5.0611  -0.2222   5.0726   7.3258   8.0844

          k = 0.0000 0.4992 0.0000 (  3052 PWs)   bands (ev):

   -17.5977 -14.4865  -8.6793  -5.2926   0.0802   5.0949   6.8642   7.6147

          k = 0.0000 0.4800 0.0000 (  3050 PWs)   bands (ev):

   -17.9011 -14.0960  -8.6210  -5.5534   0.4313   5.1224   6.4195   7.1609

          k = 0.0000 0.4608 0.0000 (  3052 PWs)   bands (ev):

   -18.1988 -13.6926  -8.5502  -5.8315   0.8183   5.1530   5.9939   6.7236

          k = 0.0000 0.4416 0.0000 (  3054 PWs)   bands (ev):

   -18.4884 -13.2792  -8.4670  -6.1180   1.2317   5.1769   5.5970   6.3032

          k = 0.0000 0.4224 0.0000 (  3034 PWs)   bands (ev):

   -18.7684 -12.8575  -8.3718  -6.4069   1.6643   5.0885   5.3341   5.9001

          k = 0.0000 0.4032 0.0000 (  3038 PWs)   bands (ev):

   -19.0380 -12.4290  -8.2652  -6.6938   2.1104   4.7608   5.3295   5.5147

          k = 0.0000 0.3840 0.0000 (  3042 PWs)   bands (ev):

   -19.2968 -11.9951  -8.1475  -6.9755   2.5651   4.4071   5.1476   5.2751

          k = 0.0000 0.3648 0.0000 (  3036 PWs)   bands (ev):

   -19.5442 -11.5569  -8.0190  -7.2498   3.0238   4.0646   4.7997   4.9358

          k = 0.0000 0.3456 0.0000 (  3026 PWs)   bands (ev):

   -19.7800 -11.1158  -7.8804  -7.5149   3.4785   3.7376   4.4755   4.6002

          k = 0.0000 0.3264 0.0000 (  3038 PWs)   bands (ev):

   -20.0040 -10.6735  -7.7696  -7.7328   3.4273   3.8799   4.2191   4.2816

          k = 0.0000 0.3072 0.0000 (  3036 PWs)   bands (ev):

   -20.2158 -10.2311  -8.0126  -7.5767   3.1341   3.8051   3.9809   4.4409

          k = 0.0000 0.2880 0.0000 (  3046 PWs)   bands (ev):

   -20.4155  -9.7906  -8.2434  -7.4133   2.8583   3.5432   3.6983   4.6322

          k = 0.0000 0.2688 0.0000 (  3048 PWs)   bands (ev):

   -20.6028  -9.3537  -8.4612  -7.2434   2.6000   3.2862   3.4338   4.4119

          k = 0.0000 0.2496 0.0000 (  3046 PWs)   bands (ev):

   -20.7775  -8.9226  -8.6656  -7.0688   2.3592   3.0443   3.1876   4.1756

          k = 0.0000 0.2304 0.0000 (  3042 PWs)   bands (ev):

   -20.9397  -8.8560  -8.4999  -6.8908   2.1362   2.8193   2.9595   3.9528

          k = 0.0000 0.2112 0.0000 (  3050 PWs)   bands (ev):

   -21.0893  -9.0323  -8.0883  -6.7113   1.9309   2.6119   2.7497   3.7466

          k = 0.0000 0.1920 0.0000 (  3046 PWs)   bands (ev):

   -21.2260  -9.1939  -7.6908  -6.5323   1.7433   2.4222   2.5581   3.5579

          k = 0.0000 0.1728 0.0000 (  3036 PWs)   bands (ev):

   -21.3499  -9.3407  -7.3109  -6.3563   1.5736   2.2504   2.3848   3.3868

          k = 0.0000 0.1536 0.0000 (  3036 PWs)   bands (ev):

   -21.4609  -9.4726  -6.9526  -6.1859   1.4217   2.0965   2.2297   3.2336

          k = 0.0000 0.1344 0.0000 (  3046 PWs)   bands (ev):

   -21.5590  -9.5893  -6.6203  -6.0241   1.2876   1.9607   2.0928   3.0983

          k = 0.0000 0.1152 0.0000 (  3052 PWs)   bands (ev):

   -21.6441  -9.6908  -6.3183  -5.8739   1.1714   1.8430   1.9742   2.9810

          k = 0.0000 0.0960 0.0000 (  3048 PWs)   bands (ev):

   -21.7162  -9.7768  -6.0515  -5.7390   1.0731   1.7433   1.8739   2.8817

          k = 0.0000 0.0768 0.0000 (  3050 PWs)   bands (ev):

   -21.7752  -9.8472  -5.8247  -5.6226   0.9927   1.6617   1.7918   2.8004

          k = 0.0000 0.0576 0.0000 (  3057 PWs)   bands (ev):

   -21.8211  -9.9022  -5.6426  -5.5278   0.9301   1.5983   1.7279   2.7371

          k = 0.0000 0.0384 0.0000 (  3063 PWs)   bands (ev):

   -21.8539  -9.9414  -5.5092  -5.4578   0.8854   1.5529   1.6823   2.6920

          k = 0.0000 0.0192 0.0000 (  3061 PWs)   bands (ev):

   -21.8736  -9.9649  -5.4277  -5.4149   0.8586   1.5257   1.6549   2.6649

          k = 0.0000 0.0000 0.0000 (  3053 PWs)   bands (ev):

   -21.8801  -9.9728  -5.4002  -5.4002   0.8496   1.5167   1.6458   2.6558

     Writing output data file graphene.save/
 
     init_run     :      0.96s CPU      1.11s WALL (       1 calls)
     electrons    :     44.62s CPU     46.50s WALL (       1 calls)

     Called by init_run:
     wfcinit      :      0.00s CPU      0.00s WALL (       1 calls)
     potinit      :      0.19s CPU      0.20s WALL (       1 calls)
     hinit0       :      0.69s CPU      0.80s WALL (       1 calls)

     Called by electrons:
     c_bands      :     44.62s CPU     46.50s WALL (       1 calls)
     v_of_rho     :      0.12s CPU      0.12s WALL (       1 calls)
     newd         :      0.04s CPU      0.06s WALL (       1 calls)
     PAW_pot      :      0.05s CPU      0.05s WALL (       1 calls)

     Called by c_bands:
     init_us_2    :      0.05s CPU      0.05s WALL (      91 calls)
     cegterg      :     42.48s CPU     44.23s WALL (     206 calls)

     Called by sum_band:

     Called by *egterg:
     h_psi        :     37.50s CPU     39.10s WALL (    3693 calls)
     s_psi        :      0.54s CPU      0.57s WALL (    3693 calls)
     g_psi        :      0.28s CPU      0.29s WALL (    3396 calls)
     cdiaghg      :      1.16s CPU      1.21s WALL (    3487 calls)

     Called by h_psi:
     h_psi:pot    :     37.41s CPU     39.00s WALL (    3693 calls)
     h_psi:calbec :      1.07s CPU      1.11s WALL (    3693 calls)
     vloc_psi     :     35.73s CPU     37.25s WALL (    3693 calls)
     add_vuspsi   :      0.57s CPU      0.60s WALL (    3693 calls)

     General routines
     calbec       :      1.05s CPU      1.10s WALL (    3693 calls)
     fft          :      0.09s CPU      0.12s WALL (      13 calls)
     ffts         :      0.00s CPU      0.00s WALL (       1 calls)
     fftw         :     30.95s CPU     32.27s WALL (   30894 calls)
     interpolate  :      0.01s CPU      0.01s WALL (       1 calls)
     davcio       :      0.03s CPU      0.04s WALL (     182 calls)
 
     Parallel routines
     fft_scatt_xy :      4.29s CPU      4.46s WALL (   30908 calls)
     fft_scatt_yz :      9.82s CPU     10.25s WALL (   30908 calls)
 
     PWSCF        :     46.26s CPU     48.37s WALL

 
   This run was terminated on:  23:50:31  18Jul2019            

=------------------------------------------------------------------------------=
   JOB DONE.
=------------------------------------------------------------------------------=
