
     Program PWSCF v.6.4.1 starts on 18Jul2019 at 23:48:59 

     This program is part of the open-source Quantum ESPRESSO suite
     for quantum simulation of materials; please cite
         "P. Giannozzi et al., J. Phys.:Condens. Matter 21 395502 (2009);
         "P. Giannozzi et al., J. Phys.:Condens. Matter 29 465901 (2017);
          URL http://www.quantum-espresso.org", 
     in publications or presentations arising from this work. More details at
     http://www.quantum-espresso.org/quote

     Parallel version (MPI), running on     2 processors

     MPI processes distributed on     1 nodes
     R & G space division:  proc/nbgrp/npool/nimage =       2
     Reading input from graphene.2_scf.in

     Current dimensions of program PWSCF are:
     Max number of different atomic species (ntypx) = 10
     Max number of k-points (npk) =  40000
     Max angular momentum in pseudopotentials (lmaxx) =  3
               file C.pbe-n-kjpaw_psl.1.0.0.UPF: wavefunction(s)  2S 2P renormalized

     Subspace diagonalization in iterative solution of the eigenvalue problem:
     a serial algorithm will be used

     Message from routine setup:
     DEPRECATED: symmetry with ibrav=0, use correct ibrav instead
 
     Parallelization info
     --------------------
     sticks:   dense  smooth     PW     G-vecs:    dense   smooth      PW
     Min         297     120     42                47977    12162    2290
     Max         298     121     43                47982    12183    2297
     Sum         595     241     85                95959    24345    4587
 


     bravais-lattice index     =            0
     lattice parameter (alat)  =       4.6487  a.u.
     unit-cell volume          =     710.6031 (a.u.)^3
     number of atoms/cell      =            2
     number of atomic types    =            1
     number of electrons       =         8.00
     number of Kohn-Sham states=            8
     kinetic-energy cutoff     =      40.0000  Ry
     charge density cutoff     =     400.0000  Ry
     convergence threshold     =      1.0E-10
     mixing beta               =       0.3000
     number of iterations used =            8  plain     mixing
     Exchange-correlation      = SLA PW PBX PBC ( 1  4  3  4 0 0)

     celldm(1)=   4.648726  celldm(2)=   0.000000  celldm(3)=   0.000000
     celldm(4)=   0.000000  celldm(5)=   0.000000  celldm(6)=   0.000000

     crystal axes: (cart. coord. in units of alat)
               a(1) = (   1.002305   0.000000   0.000000 )  
               a(2) = (  -0.501152   0.868021   0.000000 )  
               a(3) = (   0.000000   0.000000   8.130081 )  

     reciprocal axes: (cart. coord. in units 2 pi/alat)
               b(1) = (  0.997700  0.576023  0.000000 )  
               b(2) = (  0.000000  1.152045  0.000000 )  
               b(3) = (  0.000000  0.000000  0.123000 )  


     PseudoPot. # 1 for C  read from file:
     /home/anonymous/quantumEspresso_2019/SSSP_precision_pseudos/C.pbe-n-kjpaw_psl.1.0.0.UPF
     MD5 check sum: 5d2aebdfa2cae82b50a7e79e9516da0f
     Pseudo is Projector augmented-wave + core cor, Zval =  4.0
     Generated using "atomic" code by A. Dal Corso v.5.1
     Shape of augmentation charge: PSQ
     Using radial grid of 1073 points,  4 beta functions with: 
                l(1) =   0
                l(2) =   0
                l(3) =   1
                l(4) =   1
     Q(r) pseudized with 0 coefficients 


     atomic species   valence    mass     pseudopotential
        C              4.00    12.01070     C ( 1.00)

     24 Sym. Ops., with inversion, found (18 have fractional translation)



   Cartesian axes

     site n.     atom                  positions (alat units)
         1           C   tau(   1) = (   0.0000000   0.0000000   2.0325203  )
         2           C   tau(   2) = (  -0.0000000   0.5786810   2.0325203  )

     number of k points=    19  Marzari-Vanderbilt smearing, width (Ry)=  0.0001
                       cart. coord. in units 2pi/alat
        k(    1) = (   0.0000000   0.0000000   0.0000000), wk =   0.0138889
        k(    2) = (   0.0000000   0.0960038   0.0000000), wk =   0.0833333
        k(    3) = (   0.0000000   0.1920075   0.0000000), wk =   0.0833333
        k(    4) = (   0.0000000   0.2880113   0.0000000), wk =   0.0833333
        k(    5) = (   0.0000000   0.3840151   0.0000000), wk =   0.0833333
        k(    6) = (   0.0000000   0.4800188   0.0000000), wk =   0.0833333
        k(    7) = (   0.0000000  -0.5760226   0.0000000), wk =   0.0416667
        k(    8) = (   0.0831417   0.1440057   0.0000000), wk =   0.0833333
        k(    9) = (   0.0831417   0.2400094   0.0000000), wk =   0.1666667
        k(   10) = (   0.0831417   0.3360132   0.0000000), wk =   0.1666667
        k(   11) = (   0.0831417   0.4320170   0.0000000), wk =   0.1666667
        k(   12) = (   0.0831417   0.5280207   0.0000000), wk =   0.1666667
        k(   13) = (   0.1662834   0.2880113   0.0000000), wk =   0.0833333
        k(   14) = (   0.1662834   0.3840151   0.0000000), wk =   0.1666667
        k(   15) = (   0.1662834   0.4800188   0.0000000), wk =   0.1666667
        k(   16) = (   0.1662834   0.5760226   0.0000000), wk =   0.0833333
        k(   17) = (   0.2494251   0.4320170   0.0000000), wk =   0.0833333
        k(   18) = (   0.2494251   0.5280207   0.0000000), wk =   0.1666667
        k(   19) = (   0.3325668   0.5760226   0.0000000), wk =   0.0277778

     Dense  grid:    95959 G-vectors     FFT dimensions: (  30,  30, 250)

     Smooth grid:    24345 G-vectors     FFT dimensions: (  24,  24, 160)

     Estimated max dynamical RAM per process >      64.76 MB

     Estimated total dynamical RAM >     129.52 MB

     Check: negative core charge=   -0.000002

     Initial potential from superposition of free atoms

     starting charge    7.99992, renormalised to    8.00000

     negative rho (up, down):  1.066E-04 0.000E+00
     Starting wfcs are    8 randomized atomic wfcs
     Checking if some PAW data can be deallocated... 

     total cpu time spent up to now is        2.2 secs

     Self-consistent Calculation

     iteration #  1     ecut=    40.00 Ry     beta= 0.30
     Davidson diagonalization with overlap
     ethr =  1.00E-02,  avg # of iterations =  5.2

     negative rho (up, down):  1.072E-04 0.000E+00

     total cpu time spent up to now is        4.4 secs

     total energy              =     -36.90754426 Ry
     Harris-Foulkes estimate   =     -36.97709625 Ry
     estimated scf accuracy    <       0.20182301 Ry

     iteration #  2     ecut=    40.00 Ry     beta= 0.30
     Davidson diagonalization with overlap
     ethr =  2.52E-03,  avg # of iterations =  1.3

     negative rho (up, down):  2.643E-04 0.000E+00

     total cpu time spent up to now is        5.8 secs

     total energy              =     -36.87453697 Ry
     Harris-Foulkes estimate   =     -36.91341969 Ry
     estimated scf accuracy    <       0.06710139 Ry

     iteration #  3     ecut=    40.00 Ry     beta= 0.30
     Davidson diagonalization with overlap
     ethr =  8.39E-04,  avg # of iterations =  6.7

     negative rho (up, down):  2.719E-04 0.000E+00

     total cpu time spent up to now is        7.8 secs

     total energy              =     -36.88608338 Ry
     Harris-Foulkes estimate   =     -36.88602518 Ry
     estimated scf accuracy    <       0.00138225 Ry

     iteration #  4     ecut=    40.00 Ry     beta= 0.30
     Davidson diagonalization with overlap
     ethr =  1.73E-05,  avg # of iterations =  4.8

     negative rho (up, down):  2.212E-04 0.000E+00

     total cpu time spent up to now is       10.1 secs

     total energy              =     -36.88555737 Ry
     Harris-Foulkes estimate   =     -36.88686073 Ry
     estimated scf accuracy    <       0.00200728 Ry

     iteration #  5     ecut=    40.00 Ry     beta= 0.30
     Davidson diagonalization with overlap
     ethr =  1.73E-05,  avg # of iterations =  3.3

     negative rho (up, down):  1.786E-04 0.000E+00

     total cpu time spent up to now is       11.9 secs

     total energy              =     -36.88590925 Ry
     Harris-Foulkes estimate   =     -36.88590901 Ry
     estimated scf accuracy    <       0.00000160 Ry

     iteration #  6     ecut=    40.00 Ry     beta= 0.30
     Davidson diagonalization with overlap
     ethr =  2.00E-08,  avg # of iterations =  3.4

     negative rho (up, down):  1.551E-04 0.000E+00

     total cpu time spent up to now is       13.7 secs

     total energy              =     -36.88591021 Ry
     Harris-Foulkes estimate   =     -36.88590996 Ry
     estimated scf accuracy    <       0.00000028 Ry

     iteration #  7     ecut=    40.00 Ry     beta= 0.30
     Davidson diagonalization with overlap
     ethr =  3.50E-09,  avg # of iterations =  2.0

     negative rho (up, down):  1.416E-04 0.000E+00

     total cpu time spent up to now is       15.3 secs

     total energy              =     -36.88591026 Ry
     Harris-Foulkes estimate   =     -36.88591026 Ry
     estimated scf accuracy    <       0.00000003 Ry

     iteration #  8     ecut=    40.00 Ry     beta= 0.30
     Davidson diagonalization with overlap
     ethr =  4.32E-10,  avg # of iterations =  2.0

     negative rho (up, down):  1.342E-04 0.000E+00

     total cpu time spent up to now is       17.1 secs

     total energy              =     -36.88591026 Ry
     Harris-Foulkes estimate   =     -36.88591026 Ry
     estimated scf accuracy    <          2.4E-09 Ry

     iteration #  9     ecut=    40.00 Ry     beta= 0.30
     Davidson diagonalization with overlap
     ethr =  2.98E-11,  avg # of iterations =  2.0

     negative rho (up, down):  1.263E-04 0.000E+00

     total cpu time spent up to now is       18.7 secs

     End of self-consistent calculation

          k = 0.0000 0.0000 0.0000 (  3053 PWs)   bands (ev):

   -21.8803  -9.9729  -5.4004  -5.4004   0.8490   1.5154   1.6441   2.6545

          k = 0.0000 0.0960 0.0000 (  3048 PWs)   bands (ev):

   -21.7163  -9.7769  -6.0516  -5.7391   1.0724   1.7420   1.8722   2.8804

          k = 0.0000 0.1920 0.0000 (  3046 PWs)   bands (ev):

   -21.2261  -9.1940  -7.6909  -6.5324   1.7427   2.4208   2.5564   3.5566

          k = 0.0000 0.2880 0.0000 (  3046 PWs)   bands (ev):

   -20.4156  -9.7907  -8.2435  -7.4134   2.8576   3.5419   3.6966   4.6312

          k = 0.0000 0.3840 0.0000 (  3042 PWs)   bands (ev):

   -19.2969 -11.9952  -8.1476  -6.9756   2.5650   4.4066   5.1463   5.2738

          k = 0.0000 0.4800 0.0000 (  3050 PWs)   bands (ev):

   -17.9012 -14.0961  -8.6211  -5.5535   0.4312   5.1223   6.4190   7.1597

          k = 0.0000-0.5760 0.0000 (  3052 PWs)   bands (ev):

   -16.6389 -15.6015  -8.7839  -4.7095  -0.6661   5.0430   8.7330   8.8754

          k = 0.0831 0.1440 0.0000 (  3051 PWs)   bands (ev):

   -21.3892  -9.3873  -7.0866  -6.4174   1.5195   2.1948   2.3284   3.3316

          k = 0.0831 0.2400 0.0000 (  3043 PWs)   bands (ev):

   -20.7389  -8.7977  -8.6194  -7.4163   2.4129   3.0980   3.2408   4.2303

          k = 0.0831 0.3360 0.0000 (  3028 PWs)   bands (ev):

   -19.7741 -10.8718  -8.3035  -7.5037   3.5752   3.7485   4.4700   4.6089

          k = 0.0831 0.4320 0.0000 (  3039 PWs)   bands (ev):

   -18.5138 -12.9957  -8.9391  -6.1246   1.3776   5.5017   5.9735   6.2536

          k = 0.0831 0.5280 0.0000 (  3037 PWs)   bands (ev):

   -17.0347 -14.9373  -9.2679  -4.8160  -0.3902   5.7818   7.7210   8.4536

          k = 0.1663 0.2880 0.0000 (  3031 PWs)   bands (ev):

   -19.9343 -10.1291  -8.7791  -7.6824   3.5278   4.0329   4.2226   4.3814

          k = 0.1663 0.3840 0.0000 (  3041 PWs)   bands (ev):

   -18.8265 -11.8574  -9.8363  -6.4297   2.0860   5.0801   5.7818   5.9774

          k = 0.1663 0.4800 0.0000 (  3039 PWs)   bands (ev):

   -17.4508 -13.7686 -10.4129  -5.0035   0.1744   7.0442   7.6928   7.7174

          k = 0.1663 0.5760 0.0000 (  3000 PWs)   bands (ev):

   -16.2174 -15.2026 -10.5978  -4.1112  -0.8931   7.5904   9.2438   9.2996

          k = 0.2494 0.4320 0.0000 (  3029 PWs)   bands (ev):

   -17.5984 -12.8937 -11.3197  -5.0875   0.4719   6.8335   7.4436   7.7996

          k = 0.2494 0.5280 0.0000 (  3011 PWs)   bands (ev):

   -16.1765 -14.3151 -12.0277  -3.7021  -1.0482   8.5218   8.9368   9.8522

          k = 0.3326 0.5760 0.0000 (  3009 PWs)   bands (ev):

   -14.9593 -14.9593 -12.9225  -2.3463  -2.3463   8.2702  10.5309  10.5309

     the Fermi energy is    -2.3462 ev

!    total energy              =     -36.88591027 Ry
     Harris-Foulkes estimate   =     -36.88591026 Ry
     estimated scf accuracy    <          6.3E-11 Ry

     total all-electron energy =      -152.414106 Ry

     The total energy is the sum of the following terms:

     one-electron contribution =    -223.81296135 Ry
     hartree contribution      =     113.34111038 Ry
     xc contribution           =      -9.27399271 Ry
     ewald contribution        =      95.19374234 Ry
     one-center paw contrib.   =     -12.33380802 Ry
     smearing contrib. (-TS)   =      -0.00000091 Ry

     convergence has been achieved in   9 iterations

     Writing output data file graphene.save/
 
     init_run     :      1.68s CPU      1.75s WALL (       1 calls)
     electrons    :     14.65s CPU     16.50s WALL (       1 calls)

     Called by init_run:
     wfcinit      :      0.38s CPU      0.39s WALL (       1 calls)
     potinit      :      0.52s CPU      0.53s WALL (       1 calls)
     hinit0       :      0.69s CPU      0.72s WALL (       1 calls)

     Called by electrons:
     c_bands      :      9.99s CPU     11.05s WALL (       9 calls)
     sum_band     :      2.36s CPU      2.80s WALL (       9 calls)
     v_of_rho     :      1.23s CPU      1.44s WALL (      10 calls)
     newd         :      0.48s CPU      0.58s WALL (      10 calls)
     PAW_pot      :      0.54s CPU      0.57s WALL (      10 calls)
     mix_rho      :      0.15s CPU      0.18s WALL (       9 calls)

     Called by c_bands:
     init_us_2    :      0.18s CPU      0.20s WALL (     361 calls)
     cegterg      :      9.62s CPU     10.64s WALL (     171 calls)

     Called by sum_band:
     sum_band:bec :      0.00s CPU      0.00s WALL (     171 calls)
     addusdens    :      0.45s CPU      0.53s WALL (       9 calls)

     Called by *egterg:
     h_psi        :      8.84s CPU      9.76s WALL (     774 calls)
     s_psi        :      0.12s CPU      0.14s WALL (     774 calls)
     g_psi        :      0.05s CPU      0.06s WALL (     584 calls)
     cdiaghg      :      0.21s CPU      0.23s WALL (     755 calls)

     Called by h_psi:
     h_psi:pot    :      8.82s CPU      9.73s WALL (     774 calls)
     h_psi:calbec :      0.23s CPU      0.25s WALL (     774 calls)
     vloc_psi     :      8.46s CPU      9.33s WALL (     774 calls)
     add_vuspsi   :      0.13s CPU      0.14s WALL (     774 calls)

     General routines
     calbec       :      0.29s CPU      0.32s WALL (     945 calls)
     fft          :      0.84s CPU      1.03s WALL (     128 calls)
     ffts         :      0.03s CPU      0.03s WALL (      19 calls)
     fftw         :      8.61s CPU      9.62s WALL (    9382 calls)
     interpolate  :      0.09s CPU      0.11s WALL (      10 calls)
 
     Parallel routines
     fft_scatt_xy :      1.30s CPU      1.46s WALL (    9529 calls)
     fft_scatt_yz :      3.13s CPU      3.53s WALL (    9529 calls)
 
     PWSCF        :     16.81s CPU     18.81s WALL

 
   This run was terminated on:  23:49:18  18Jul2019            

=------------------------------------------------------------------------------=
   JOB DONE.
=------------------------------------------------------------------------------=
