
     Program PWSCF v.6.4.1 starts on 26Jun2019 at 22:12:41 

     This program is part of the open-source Quantum ESPRESSO suite
     for quantum simulation of materials; please cite
         "P. Giannozzi et al., J. Phys.:Condens. Matter 21 395502 (2009);
         "P. Giannozzi et al., J. Phys.:Condens. Matter 29 465901 (2017);
          URL http://www.quantum-espresso.org", 
     in publications or presentations arising from this work. More details at
     http://www.quantum-espresso.org/quote

     Parallel version (MPI), running on     2 processors

     MPI processes distributed on     1 nodes
     R & G space division:  proc/nbgrp/npool/nimage =       2
     Reading input from si.1_scf.in

     Current dimensions of program PWSCF are:
     Max number of different atomic species (ntypx) = 10
     Max number of k-points (npk) =  40000
     Max angular momentum in pseudopotentials (lmaxx) =  3

     Subspace diagonalization in iterative solution of the eigenvalue problem:
     a serial algorithm will be used

 
     Parallelization info
     --------------------
     sticks:   dense  smooth     PW     G-vecs:    dense   smooth      PW
     Min         372     372    117                 6767     6767    1138
     Max         373     373    118                 6772     6772    1139
     Sum         745     745    235                13539    13539    2277
 


     bravais-lattice index     =            2
     lattice parameter (alat)  =      10.4109  a.u.
     unit-cell volume          =     282.1019 (a.u.)^3
     number of atoms/cell      =            2
     number of atomic types    =            1
     number of electrons       =         8.00
     number of Kohn-Sham states=            4
     kinetic-energy cutoff     =      50.0000  Ry
     charge density cutoff     =     200.0000  Ry
     convergence threshold     =      1.0E-08
     mixing beta               =       0.7000
     number of iterations used =            8  plain     mixing
     Exchange-correlation      = PBE ( 1  4  3  4 0 0)

     celldm(1)=  10.410909  celldm(2)=   0.000000  celldm(3)=   0.000000
     celldm(4)=   0.000000  celldm(5)=   0.000000  celldm(6)=   0.000000

     crystal axes: (cart. coord. in units of alat)
               a(1) = (  -0.500000   0.000000   0.500000 )  
               a(2) = (   0.000000   0.500000   0.500000 )  
               a(3) = (  -0.500000   0.500000   0.000000 )  

     reciprocal axes: (cart. coord. in units 2 pi/alat)
               b(1) = ( -1.000000 -1.000000  1.000000 )  
               b(2) = (  1.000000  1.000000  1.000000 )  
               b(3) = ( -1.000000  1.000000 -1.000000 )  


     PseudoPot. # 1 for Si read from file:
     /home/anonymous/quantumEspresso_2019/SSSP_precision_pseudos/Si.pbe-n-rrkjus_psl.1.0.0.UPF
     MD5 check sum: 0b0bb1205258b0d07b9f9672cf965d36
     Pseudo is Ultrasoft + core correction, Zval =  4.0
     Generated using "atomic" code by A. Dal Corso v.5.1
     Using radial grid of 1141 points,  6 beta functions with: 
                l(1) =   0
                l(2) =   0
                l(3) =   1
                l(4) =   1
                l(5) =   2
                l(6) =   2
     Q(r) pseudized with 0 coefficients 


     atomic species   valence    mass     pseudopotential
        Si             4.00    28.08550     Si( 1.00)

     48 Sym. Ops., with inversion, found (24 have fractional translation)



   Cartesian axes

     site n.     atom                  positions (alat units)
         1           Si  tau(   1) = (   0.0000000   0.0000000   0.0000000  )
         2           Si  tau(   2) = (   0.2500000   0.2500000   0.2500000  )

     number of k points=    29
                       cart. coord. in units 2pi/alat
        k(    1) = (   0.0000000   0.0000000   0.0000000), wk =   0.0039062
        k(    2) = (  -0.1250000   0.1250000  -0.1250000), wk =   0.0312500
        k(    3) = (  -0.2500000   0.2500000  -0.2500000), wk =   0.0312500
        k(    4) = (  -0.3750000   0.3750000  -0.3750000), wk =   0.0312500
        k(    5) = (   0.5000000  -0.5000000   0.5000000), wk =   0.0156250
        k(    6) = (   0.0000000   0.2500000   0.0000000), wk =   0.0234375
        k(    7) = (  -0.1250000   0.3750000  -0.1250000), wk =   0.0937500
        k(    8) = (  -0.2500000   0.5000000  -0.2500000), wk =   0.0937500
        k(    9) = (   0.6250000  -0.3750000   0.6250000), wk =   0.0937500
        k(   10) = (   0.5000000  -0.2500000   0.5000000), wk =   0.0937500
        k(   11) = (   0.3750000  -0.1250000   0.3750000), wk =   0.0937500
        k(   12) = (   0.2500000   0.0000000   0.2500000), wk =   0.0468750
        k(   13) = (   0.0000000   0.5000000   0.0000000), wk =   0.0234375
        k(   14) = (  -0.1250000   0.6250000  -0.1250000), wk =   0.0937500
        k(   15) = (   0.7500000  -0.2500000   0.7500000), wk =   0.0937500
        k(   16) = (   0.6250000  -0.1250000   0.6250000), wk =   0.0937500
        k(   17) = (   0.5000000   0.0000000   0.5000000), wk =   0.0468750
        k(   18) = (   0.0000000   0.7500000   0.0000000), wk =   0.0234375
        k(   19) = (   0.8750000  -0.1250000   0.8750000), wk =   0.0937500
        k(   20) = (   0.7500000   0.0000000   0.7500000), wk =   0.0468750
        k(   21) = (   0.0000000  -1.0000000   0.0000000), wk =   0.0117188
        k(   22) = (  -0.2500000   0.5000000   0.0000000), wk =   0.0937500
        k(   23) = (   0.6250000  -0.3750000   0.8750000), wk =   0.1875000
        k(   24) = (   0.5000000  -0.2500000   0.7500000), wk =   0.0937500
        k(   25) = (   0.7500000  -0.2500000   1.0000000), wk =   0.0937500
        k(   26) = (   0.6250000  -0.1250000   0.8750000), wk =   0.1875000
        k(   27) = (   0.5000000   0.0000000   0.7500000), wk =   0.0937500
        k(   28) = (  -0.2500000  -1.0000000   0.0000000), wk =   0.0468750
        k(   29) = (  -0.5000000  -1.0000000   0.0000000), wk =   0.0234375

     Dense  grid:    13539 G-vectors     FFT dimensions: (  36,  36,  36)

     Estimated max dynamical RAM per process >      27.73 MB

     Estimated total dynamical RAM >      55.46 MB

     Check: negative core charge=   -0.000001

     Initial potential from superposition of free atoms

     starting charge    7.99888, renormalised to    8.00000
     Starting wfcs are    8 randomized atomic wfcs

     total cpu time spent up to now is        1.0 secs

     Self-consistent Calculation

     iteration #  1     ecut=    50.00 Ry     beta= 0.70
     Davidson diagonalization with overlap
     ethr =  1.00E-02,  avg # of iterations =  2.0

     Threshold (ethr) on eigenvalues was too large:
     Diagonalizing with lowered threshold

     Davidson diagonalization with overlap
     ethr =  6.46E-04,  avg # of iterations =  1.3

     total cpu time spent up to now is        2.0 secs

     total energy              =     -22.83721517 Ry
     Harris-Foulkes estimate   =     -22.84887370 Ry
     estimated scf accuracy    <       0.05142216 Ry

     iteration #  2     ecut=    50.00 Ry     beta= 0.70
     Davidson diagonalization with overlap
     ethr =  6.43E-04,  avg # of iterations =  1.0

     total cpu time spent up to now is        2.4 secs

     total energy              =     -22.83890165 Ry
     Harris-Foulkes estimate   =     -22.83914028 Ry
     estimated scf accuracy    <       0.00265236 Ry

     iteration #  3     ecut=    50.00 Ry     beta= 0.70
     Davidson diagonalization with overlap
     ethr =  3.32E-05,  avg # of iterations =  2.9

     total cpu time spent up to now is        3.0 secs

     total energy              =     -22.83950893 Ry
     Harris-Foulkes estimate   =     -22.83956813 Ry
     estimated scf accuracy    <       0.00013321 Ry

     iteration #  4     ecut=    50.00 Ry     beta= 0.70
     Davidson diagonalization with overlap
     ethr =  1.67E-06,  avg # of iterations =  2.1

     total cpu time spent up to now is        3.5 secs

     total energy              =     -22.83952546 Ry
     Harris-Foulkes estimate   =     -22.83956288 Ry
     estimated scf accuracy    <       0.00007832 Ry

     iteration #  5     ecut=    50.00 Ry     beta= 0.70
     Davidson diagonalization with overlap
     ethr =  9.79E-07,  avg # of iterations =  2.0

     total cpu time spent up to now is        4.0 secs

     total energy              =     -22.83953392 Ry
     Harris-Foulkes estimate   =     -22.83953389 Ry
     estimated scf accuracy    <       0.00000003 Ry

     iteration #  6     ecut=    50.00 Ry     beta= 0.70
     Davidson diagonalization with overlap
     ethr =  3.94E-10,  avg # of iterations =  4.6

     total cpu time spent up to now is        4.8 secs

     total energy              =     -22.83953438 Ry
     Harris-Foulkes estimate   =     -22.83953440 Ry
     estimated scf accuracy    <       0.00000009 Ry

     iteration #  7     ecut=    50.00 Ry     beta= 0.70
     Davidson diagonalization with overlap
     ethr =  3.94E-10,  avg # of iterations =  1.1

     total cpu time spent up to now is        5.2 secs

     total energy              =     -22.83953437 Ry
     Harris-Foulkes estimate   =     -22.83953438 Ry
     estimated scf accuracy    <       0.00000001 Ry

     iteration #  8     ecut=    50.00 Ry     beta= 0.70
     Davidson diagonalization with overlap
     ethr =  1.78E-10,  avg # of iterations =  2.0

     total cpu time spent up to now is        5.7 secs

     End of self-consistent calculation

          k = 0.0000 0.0000 0.0000 (  1687 PWs)   bands (ev):

    -5.9089   5.7620   5.7620   5.7620

          k =-0.1250 0.1250-0.1250 (  1705 PWs)   bands (ev):

    -5.7123   4.1729   5.4851   5.4851

          k =-0.2500 0.2500-0.2500 (  1679 PWs)   bands (ev):

    -5.1397   1.9093   5.0292   5.0292

          k =-0.3750 0.3750-0.3750 (  1673 PWs)   bands (ev):

    -4.2852  -0.0388   4.7100   4.7100

          k = 0.5000-0.5000 0.5000 (  1694 PWs)   bands (ev):

    -3.6849  -1.0122   4.6004   4.6004

          k = 0.0000 0.2500 0.0000 (  1703 PWs)   bands (ev):

    -5.6460   4.3841   4.9935   4.9935

          k =-0.1250 0.3750-0.1250 (  1683 PWs)   bands (ev):

    -5.1950   2.5666   4.4997   4.5511

          k =-0.2500 0.5000-0.2500 (  1671 PWs)   bands (ev):

    -4.4137   0.5841   3.9752   4.2375

          k = 0.6250-0.3750 0.6250 (  1687 PWs)   bands (ev):

    -3.5978  -0.8127   3.5465   4.2568

          k = 0.5000-0.2500 0.5000 (  1680 PWs)   bands (ev):

    -3.8277  -0.4611   3.3779   4.5390

          k = 0.3750-0.1250 0.3750 (  1682 PWs)   bands (ev):

    -4.7070   1.2171   3.5360   5.0106

          k = 0.2500 0.0000 0.2500 (  1699 PWs)   bands (ev):

    -5.3887   3.0893   4.2092   5.4739

          k = 0.0000 0.5000 0.0000 (  1700 PWs)   bands (ev):

    -4.8669   2.2340   3.9508   3.9508

          k =-0.1250 0.6250-0.1250 (  1679 PWs)   bands (ev):

    -4.1846   0.8642   3.1996   3.6425

          k = 0.7500-0.2500 0.7500 (  1689 PWs)   bands (ev):

    -3.3016  -0.5099   2.3673   3.6431

          k = 0.6250-0.1250 0.6250 (  1694 PWs)   bands (ev):

    -3.1116  -0.7513   1.9312   3.9473

          k = 0.5000 0.0000 0.5000 (  1682 PWs)   bands (ev):

    -3.9466   0.3559   2.1724   4.4817

          k = 0.0000 0.7500 0.0000 (  1684 PWs)   bands (ev):

    -3.6037   0.0753   3.2585   3.2585

          k = 0.8750-0.1250 0.8750 (  1687 PWs)   bands (ev):

    -2.7431  -0.9722   2.4768   3.1841

          k = 0.7500 0.0000 0.7500 (  1682 PWs)   bands (ev):

    -2.3355  -1.3459   1.6586   3.4311

          k = 0.0000-1.0000 0.0000 (  1692 PWs)   bands (ev):

    -1.9202  -1.9202   3.0209   3.0209

          k =-0.2500 0.5000 0.0000 (  1682 PWs)   bands (ev):

    -4.6300   1.5070   3.1669   4.3859

          k = 0.6250-0.3750 0.8750 (  1682 PWs)   bands (ev):

    -3.7801   0.0201   2.5670   3.9122

          k = 0.5000-0.2500 0.7500 (  1688 PWs)   bands (ev):

    -3.1645  -0.8735   2.4330   3.6957

          k = 0.7500-0.2500 1.0000 (  1683 PWs)   bands (ev):

    -3.4158  -0.1362   2.5442   3.1249

          k = 0.6250-0.1250 0.8750 (  1682 PWs)   bands (ev):

    -2.5840  -1.0648   1.8822   2.9337

          k = 0.5000 0.0000 0.7500 (  1681 PWs)   bands (ev):

    -2.9205  -0.7125   1.7243   3.2911

          k =-0.2500-1.0000 0.0000 (  1678 PWs)   bands (ev):

    -1.8506  -1.8506   2.4957   2.4957

          k =-0.5000-1.0000 0.0000 (  1708 PWs)   bands (ev):

    -1.7748  -1.7748   2.0882   2.0882

     highest occupied level (ev):     5.7620

!    total energy              =     -22.83953437 Ry
     Harris-Foulkes estimate   =     -22.83953437 Ry
     estimated scf accuracy    <          1.3E-10 Ry

     The total energy is the sum of the following terms:

     one-electron contribution =       4.83566750 Ry
     hartree contribution      =       1.13964667 Ry
     xc contribution           =     -12.25745343 Ry
     ewald contribution        =     -16.55739512 Ry

     convergence has been achieved in   8 iterations

     Writing output data file si.save/
 
     init_run     :      0.48s CPU      0.50s WALL (       1 calls)
     electrons    :      4.68s CPU      4.73s WALL (       1 calls)

     Called by init_run:
     wfcinit      :      0.20s CPU      0.21s WALL (       1 calls)
     potinit      :      0.02s CPU      0.02s WALL (       1 calls)
     hinit0       :      0.21s CPU      0.22s WALL (       1 calls)

     Called by electrons:
     c_bands      :      3.51s CPU      3.54s WALL (       9 calls)
     sum_band     :      0.83s CPU      0.86s WALL (       9 calls)
     v_of_rho     :      0.15s CPU      0.15s WALL (       9 calls)
     newd         :      0.18s CPU      0.19s WALL (       9 calls)
     mix_rho      :      0.02s CPU      0.02s WALL (       9 calls)

     Called by c_bands:
     init_us_2    :      0.21s CPU      0.21s WALL (     551 calls)
     cegterg      :      2.71s CPU      2.73s WALL (     261 calls)

     Called by sum_band:
     sum_band:bec :      0.00s CPU      0.00s WALL (     261 calls)
     addusdens    :      0.19s CPU      0.20s WALL (       9 calls)

     Called by *egterg:
     h_psi        :      2.51s CPU      2.53s WALL (     841 calls)
     s_psi        :      0.08s CPU      0.08s WALL (     841 calls)
     g_psi        :      0.02s CPU      0.02s WALL (     551 calls)
     cdiaghg      :      0.08s CPU      0.08s WALL (     783 calls)

     Called by h_psi:
     h_psi:pot    :      2.50s CPU      2.52s WALL (     841 calls)
     h_psi:calbec :      0.26s CPU      0.26s WALL (     841 calls)
     vloc_psi     :      2.14s CPU      2.16s WALL (     841 calls)
     add_vuspsi   :      0.09s CPU      0.09s WALL (     841 calls)

     General routines
     calbec       :      0.34s CPU      0.34s WALL (    1102 calls)
     fft          :      0.07s CPU      0.06s WALL (     100 calls)
     ffts         :      0.01s CPU      0.01s WALL (       9 calls)
     fftw         :      2.21s CPU      2.23s WALL (    7354 calls)
 
     Parallel routines
     fft_scatt_xy :      0.28s CPU      0.29s WALL (    7463 calls)
     fft_scatt_yz :      0.72s CPU      0.73s WALL (    7463 calls)
 
     PWSCF        :      5.70s CPU      5.78s WALL

 
   This run was terminated on:  22:12:46  26Jun2019            

=------------------------------------------------------------------------------=
   JOB DONE.
=------------------------------------------------------------------------------=
