
     Program PWSCF v.6.4.1 starts on 26Jun2019 at 22:12:57 

     This program is part of the open-source Quantum ESPRESSO suite
     for quantum simulation of materials; please cite
         "P. Giannozzi et al., J. Phys.:Condens. Matter 21 395502 (2009);
         "P. Giannozzi et al., J. Phys.:Condens. Matter 29 465901 (2017);
          URL http://www.quantum-espresso.org", 
     in publications or presentations arising from this work. More details at
     http://www.quantum-espresso.org/quote

     Parallel version (MPI), running on     2 processors

     MPI processes distributed on     1 nodes
     R & G space division:  proc/nbgrp/npool/nimage =       2
     Reading input from si.2_nscf.in

     Current dimensions of program PWSCF are:
     Max number of different atomic species (ntypx) = 10
     Max number of k-points (npk) =  40000
     Max angular momentum in pseudopotentials (lmaxx) =  3

     Atomic positions and unit cell read from directory:
     ./outdir/si.save/
 

     Subspace diagonalization in iterative solution of the eigenvalue problem:
     a serial algorithm will be used

 
     Parallelization info
     --------------------
     sticks:   dense  smooth     PW     G-vecs:    dense   smooth      PW
     Min         372     372    117                 6767     6767    1138
     Max         373     373    118                 6772     6772    1139
     Sum         745     745    235                13539    13539    2277
 


     bravais-lattice index     =            2
     lattice parameter (alat)  =      10.4109  a.u.
     unit-cell volume          =     282.1019 (a.u.)^3
     number of atoms/cell      =            2
     number of atomic types    =            1
     number of electrons       =         8.00
     number of Kohn-Sham states=            8
     kinetic-energy cutoff     =      50.0000  Ry
     charge density cutoff     =     200.0000  Ry
     Exchange-correlation      = PBE ( 1  4  3  4 0 0)

     celldm(1)=  10.410909  celldm(2)=   0.000000  celldm(3)=   0.000000
     celldm(4)=   0.000000  celldm(5)=   0.000000  celldm(6)=   0.000000

     crystal axes: (cart. coord. in units of alat)
               a(1) = (  -0.500000   0.000000   0.500000 )  
               a(2) = (   0.000000   0.500000   0.500000 )  
               a(3) = (  -0.500000   0.500000   0.000000 )  

     reciprocal axes: (cart. coord. in units 2 pi/alat)
               b(1) = ( -1.000000 -1.000000  1.000000 )  
               b(2) = (  1.000000  1.000000  1.000000 )  
               b(3) = ( -1.000000  1.000000 -1.000000 )  


     PseudoPot. # 1 for Si read from file:
     /home/anonymous/quantumEspresso_2019/SSSP_precision_pseudos/Si.pbe-n-rrkjus_psl.1.0.0.UPF
     MD5 check sum: 0b0bb1205258b0d07b9f9672cf965d36
     Pseudo is Ultrasoft + core correction, Zval =  4.0
     Generated using "atomic" code by A. Dal Corso v.5.1
     Using radial grid of 1141 points,  6 beta functions with: 
                l(1) =   0
                l(2) =   0
                l(3) =   1
                l(4) =   1
                l(5) =   2
                l(6) =   2
     Q(r) pseudized with 0 coefficients 


     atomic species   valence    mass     pseudopotential
        Si             4.00    28.08550     Si( 1.00)

     48 Sym. Ops., with inversion, found (24 have fractional translation)



   Cartesian axes

     site n.     atom                  positions (alat units)
         1           Si  tau(   1) = (   0.0000000   0.0000000   0.0000000  )
         2           Si  tau(   2) = (   0.2500000   0.2500000   0.2500000  )

     number of k points=    72 (tetrahedron method)
                       cart. coord. in units 2pi/alat
        k(    1) = (   0.0000000   0.0000000   0.0000000), wk =   0.0011574
        k(    2) = (  -0.0833333   0.0833333  -0.0833333), wk =   0.0092593
        k(    3) = (  -0.1666667   0.1666667  -0.1666667), wk =   0.0092593
        k(    4) = (  -0.2500000   0.2500000  -0.2500000), wk =   0.0092593
        k(    5) = (  -0.3333333   0.3333333  -0.3333333), wk =   0.0092593
        k(    6) = (  -0.4166667   0.4166667  -0.4166667), wk =   0.0092593
        k(    7) = (   0.5000000  -0.5000000   0.5000000), wk =   0.0046296
        k(    8) = (   0.0000000   0.1666667   0.0000000), wk =   0.0069444
        k(    9) = (  -0.0833333   0.2500000  -0.0833333), wk =   0.0277778
        k(   10) = (  -0.1666667   0.3333333  -0.1666667), wk =   0.0277778
        k(   11) = (  -0.2500000   0.4166667  -0.2500000), wk =   0.0277778
        k(   12) = (  -0.3333333   0.5000000  -0.3333333), wk =   0.0277778
        k(   13) = (   0.5833333  -0.4166667   0.5833333), wk =   0.0277778
        k(   14) = (   0.5000000  -0.3333333   0.5000000), wk =   0.0277778
        k(   15) = (   0.4166667  -0.2500000   0.4166667), wk =   0.0277778
        k(   16) = (   0.3333333  -0.1666667   0.3333333), wk =   0.0277778
        k(   17) = (   0.2500000  -0.0833333   0.2500000), wk =   0.0277778
        k(   18) = (   0.1666667  -0.0000000   0.1666667), wk =   0.0138889
        k(   19) = (   0.0000000   0.3333333   0.0000000), wk =   0.0069444
        k(   20) = (  -0.0833333   0.4166667  -0.0833333), wk =   0.0277778
        k(   21) = (  -0.1666667   0.5000000  -0.1666667), wk =   0.0277778
        k(   22) = (  -0.2500000   0.5833333  -0.2500000), wk =   0.0277778
        k(   23) = (   0.6666667  -0.3333333   0.6666667), wk =   0.0277778
        k(   24) = (   0.5833333  -0.2500000   0.5833333), wk =   0.0277778
        k(   25) = (   0.5000000  -0.1666667   0.5000000), wk =   0.0277778
        k(   26) = (   0.4166667  -0.0833333   0.4166667), wk =   0.0277778
        k(   27) = (   0.3333333   0.0000000   0.3333333), wk =   0.0138889
        k(   28) = (   0.0000000   0.5000000   0.0000000), wk =   0.0069444
        k(   29) = (  -0.0833333   0.5833333  -0.0833333), wk =   0.0277778
        k(   30) = (  -0.1666667   0.6666667  -0.1666667), wk =   0.0277778
        k(   31) = (   0.7500000  -0.2500000   0.7500000), wk =   0.0277778
        k(   32) = (   0.6666667  -0.1666667   0.6666667), wk =   0.0277778
        k(   33) = (   0.5833333  -0.0833333   0.5833333), wk =   0.0277778
        k(   34) = (   0.5000000   0.0000000   0.5000000), wk =   0.0138889
        k(   35) = (   0.0000000   0.6666667   0.0000000), wk =   0.0069444
        k(   36) = (  -0.0833333   0.7500000  -0.0833333), wk =   0.0277778
        k(   37) = (   0.8333333  -0.1666667   0.8333333), wk =   0.0277778
        k(   38) = (   0.7500000  -0.0833333   0.7500000), wk =   0.0277778
        k(   39) = (   0.6666667   0.0000000   0.6666667), wk =   0.0138889
        k(   40) = (   0.0000000   0.8333333   0.0000000), wk =   0.0069444
        k(   41) = (   0.9166667  -0.0833333   0.9166667), wk =   0.0277778
        k(   42) = (   0.8333333   0.0000000   0.8333333), wk =   0.0138889
        k(   43) = (   0.0000000  -1.0000000   0.0000000), wk =   0.0034722
        k(   44) = (  -0.1666667   0.3333333   0.0000000), wk =   0.0277778
        k(   45) = (  -0.2500000   0.4166667  -0.0833333), wk =   0.0555556
        k(   46) = (  -0.3333333   0.5000000  -0.1666667), wk =   0.0555556
        k(   47) = (   0.5833333  -0.4166667   0.7500000), wk =   0.0555556
        k(   48) = (   0.5000000  -0.3333333   0.6666667), wk =   0.0277778
        k(   49) = (  -0.1666667   0.5000000   0.0000000), wk =   0.0277778
        k(   50) = (  -0.2500000   0.5833333  -0.0833333), wk =   0.0555556
        k(   51) = (   0.6666667  -0.3333333   0.8333333), wk =   0.0555556
        k(   52) = (   0.5833333  -0.2500000   0.7500000), wk =   0.0555556
        k(   53) = (   0.5000000  -0.1666667   0.6666667), wk =   0.0555556
        k(   54) = (   0.4166667  -0.0833333   0.5833333), wk =   0.0555556
        k(   55) = (   0.3333333   0.0000000   0.5000000), wk =   0.0277778
        k(   56) = (  -0.1666667   0.6666667  -0.0000000), wk =   0.0277778
        k(   57) = (   0.7500000  -0.2500000   0.9166667), wk =   0.0555556
        k(   58) = (   0.6666667  -0.1666667   0.8333333), wk =   0.0555556
        k(   59) = (   0.5833333  -0.0833333   0.7500000), wk =   0.0555556
        k(   60) = (   0.5000000   0.0000000   0.6666667), wk =   0.0277778
        k(   61) = (   0.8333333  -0.1666667   1.0000000), wk =   0.0277778
        k(   62) = (   0.7500000  -0.0833333   0.9166667), wk =   0.0555556
        k(   63) = (   0.6666667   0.0000000   0.8333333), wk =   0.0277778
        k(   64) = (  -0.1666667  -1.0000000   0.0000000), wk =   0.0138889
        k(   65) = (   0.6666667  -0.3333333   1.0000000), wk =   0.0277778
        k(   66) = (   0.5833333  -0.2500000   0.9166667), wk =   0.0555556
        k(   67) = (   0.5000000  -0.1666667   0.8333333), wk =   0.0277778
        k(   68) = (   0.6666667  -0.1666667   1.0000000), wk =   0.0277778
        k(   69) = (   0.5833333  -0.0833333   0.9166667), wk =   0.0555556
        k(   70) = (   0.5000000   0.0000000   0.8333333), wk =   0.0277778
        k(   71) = (  -0.3333333  -1.0000000   0.0000000), wk =   0.0138889
        k(   72) = (  -0.5000000  -1.0000000   0.0000000), wk =   0.0069444

     Dense  grid:    13539 G-vectors     FFT dimensions: (  36,  36,  36)

     Estimated max dynamical RAM per process >      24.35 MB

     Estimated total dynamical RAM >      48.71 MB

     Check: negative core charge=   -0.000001

     The potential is recalculated from file :
     ./outdir/si.save/charge-density

     Starting wfcs are    8 randomized atomic wfcs

     Band Structure Calculation
     Davidson diagonalization with overlap

     ethr =  1.25E-10,  avg # of iterations = 18.8

     total cpu time spent up to now is        9.0 secs

     End of band structure calculation

          k = 0.0000 0.0000 0.0000 (  1687 PWs)   bands (ev):

    -5.9088   5.7620   5.7620   5.7620   8.3058   8.3058   8.3058   8.6349

          k =-0.0833 0.0833-0.0833 (  1699 PWs)   bands (ev):

    -5.8212   4.9005   5.6247   5.6247   8.2635   8.5080   8.5080   9.3952

          k =-0.1667 0.1667-0.1667 (  1687 PWs)   bands (ev):

    -5.5611   3.4097   5.3294   5.3294   7.9678   8.9300   8.9300  10.8518

          k =-0.2500 0.2500-0.2500 (  1679 PWs)   bands (ev):

    -5.1396   1.9094   5.0293   5.0293   7.6397   9.2316   9.2316  12.3282

          k =-0.3333 0.3333-0.3333 (  1670 PWs)   bands (ev):

    -4.5869   0.5504   4.7946   4.7946   7.3732   9.2586   9.2586  13.4411

          k =-0.4167 0.4167-0.4167 (  1679 PWs)   bands (ev):

    -3.9976  -0.5332   4.6493   4.6493   7.2048   9.1667   9.1667  13.5063

          k = 0.5000-0.5000 0.5000 (  1694 PWs)   bands (ev):

    -3.6849  -1.0121   4.6005   4.6005   7.1476   9.1193   9.1193  13.4381

          k = 0.0000 0.1667 0.0000 (  1695 PWs)   bands (ev):

    -5.7918   5.0318   5.3540   5.3540   8.0427   8.8579   8.8579   9.3187

          k =-0.0833 0.2500-0.0833 (  1704 PWs)   bands (ev):

    -5.5887   3.8362   5.0047   5.1704   8.0573   8.8421   9.3770  10.3739

          k =-0.1667 0.3333-0.1667 (  1690 PWs)   bands (ev):

    -5.2194   2.3820   4.7013   4.8545   8.1224   8.8735   9.7616  11.0693

          k =-0.2500 0.4167-0.2500 (  1677 PWs)   bands (ev):

    -4.7052   0.9953   4.4961   4.5114   7.9385   9.0191   9.8096  11.6612

          k =-0.3333 0.5000-0.3333 (  1683 PWs)   bands (ev):

    -4.1088  -0.1867   4.2248   4.4064   7.7616   9.0220   9.6412  12.6720

          k = 0.5833-0.4167 0.5833 (  1690 PWs)   bands (ev):

    -3.6471  -0.9186   4.0283   4.4333   7.6747   9.0380   9.4573  13.5724

          k = 0.5000-0.3333 0.5000 (  1682 PWs)   bands (ev):

    -3.7600  -0.7507   3.9396   4.5692   7.6954   9.1535   9.3495  13.6792

          k = 0.4167-0.2500 0.4167 (  1679 PWs)   bands (ev):

    -4.3103   0.1777   3.9707   4.7993   7.8233   9.3062   9.3473  13.0733

          k = 0.3333-0.1667 0.3333 (  1682 PWs)   bands (ev):

    -4.8915   1.4429   4.1311   5.0982   8.0462   9.2037   9.4698  12.0845

          k = 0.2500-0.0833 0.2500 (  1684 PWs)   bands (ev):

    -5.3609   2.8515   4.4323   5.4163   8.3304   8.8963   9.2284  11.2376

          k = 0.1667-0.0000 0.1667 (  1701 PWs)   bands (ev):

    -5.6758   4.1665   4.9417   5.6446   8.5388   8.5478   8.6864  10.2457

          k = 0.0000 0.3333 0.0000 (  1700 PWs)   bands (ev):

    -5.4426   3.6839   4.6225   4.6225   7.4822   9.8576  10.0150  10.0150

          k =-0.0833 0.4167-0.0833 (  1683 PWs)   bands (ev):

    -5.1277   2.6404   4.2746   4.2997   7.5002   9.5380  10.3793  10.5646

          k =-0.1667 0.5000-0.1667 (  1680 PWs)   bands (ev):

    -4.6588   1.3845   3.8305   4.0871   7.7311   9.6883  10.2526  10.7496

          k =-0.2500 0.5833-0.2500 (  1681 PWs)   bands (ev):

    -4.0775   0.2018   3.4038   4.0037   7.7721   9.8767  10.5989  10.7618

          k = 0.6667-0.3333 0.6667 (  1689 PWs)   bands (ev):

    -3.5253  -0.6873   3.0720   4.0531   7.7938   9.7650  10.3471  12.0683

          k = 0.5833-0.2500 0.5833 (  1694 PWs)   bands (ev):

    -3.4188  -0.8373   2.8694   4.2279   7.9182   9.7342  10.1290  13.5712

          k = 0.5000-0.1667 0.5000 (  1690 PWs)   bands (ev):

    -3.8895  -0.1175   2.8222   4.5099   8.1527   9.8040   9.9566  12.8489

          k = 0.4167-0.0833 0.4167 (  1680 PWs)   bands (ev):

    -4.4851   0.9782   2.9738   4.8625   8.4477   9.7113   9.8677  11.7092

          k = 0.3333 0.0000 0.3333 (  1684 PWs)   bands (ev):

    -4.9954   2.0773   3.4568   5.2115   8.6642   9.2708   9.5365  11.2520

          k = 0.0000 0.5000 0.0000 (  1700 PWs)   bands (ev):

    -4.8669   2.2340   3.9509   3.9509   6.9325   8.8950  11.3791  11.3791

          k =-0.0833 0.5833-0.0833 (  1687 PWs)   bands (ev):

    -4.4470   1.3565   3.5027   3.7124   7.0149   8.5632  11.6350  11.8592

          k =-0.1667 0.6667-0.1667 (  1678 PWs)   bands (ev):

    -3.8954   0.3712   2.8943   3.6075   7.2355   9.0103  11.4833  11.8464

          k = 0.7500-0.2500 0.7500 (  1689 PWs)   bands (ev):

    -3.3015  -0.5098   2.3673   3.6431   7.3238  10.1761  11.3027  11.5938

          k = 0.6667-0.1667 0.6667 (  1692 PWs)   bands (ev):

    -2.9987  -0.8986   2.0201   3.8149   7.4914  11.1137  11.3066  11.7590

          k = 0.5833-0.0833 0.5833 (  1686 PWs)   bands (ev):

    -3.3539  -0.4321   1.9127   4.1065   7.7928  10.9979  11.0727  12.7317

          k = 0.5000 0.0000 0.5000 (  1682 PWs)   bands (ev):

    -3.9465   0.3559   2.1725   4.4818   8.1811  10.4626  10.7969  11.6861

          k = 0.0000 0.6667 0.0000 (  1680 PWs)   bands (ev):

    -4.0754   0.7846   3.4412   3.4412   6.5505   7.8123  12.8369  12.8369

          k =-0.0833 0.7500-0.0833 (  1685 PWs)   bands (ev):

    -3.5616   0.0254   2.9807   3.3029   6.7118   7.6780  13.1270  13.2158

          k = 0.8333-0.1667 0.8333 (  1683 PWs)   bands (ev):

    -2.9601  -0.7146   2.2911   3.3079   6.8904   8.4888  13.0045  13.0616

          k = 0.7500-0.0833 0.7500 (  1681 PWs)   bands (ev):

    -2.5193  -1.1802   1.7422   3.4550   7.0599   9.8921  12.7163  12.8397

          k = 0.6667 0.0000 0.6667 (  1700 PWs)   bands (ev):

    -2.7827  -0.9014   1.5498   3.7316   7.3685  11.5184  12.0910  12.6198

          k = 0.0000 0.8333 0.0000 (  1684 PWs)   bands (ev):

    -3.0849  -0.6158   3.1269   3.1269   6.4102   7.0178  14.3416  14.3416

          k = 0.9167-0.0833 0.9167 (  1689 PWs)   bands (ev):

    -2.4958  -1.2796   2.7212   3.0940   6.6124   7.1630  14.5898  14.6482

          k = 0.8333 0.0000 0.8333 (  1684 PWs)   bands (ev):

    -2.0672  -1.6645   2.0902   3.2063   6.7680   8.3166  14.0484  14.4707

          k = 0.0000-1.0000 0.0000 (  1692 PWs)   bands (ev):

    -1.9201  -1.9201   3.0209   3.0209   6.5555   6.5555  15.4989  15.4989

          k =-0.1667 0.3333 0.0000 (  1683 PWs)   bands (ev):

    -5.3300   3.0395   4.2028   5.0736   8.0889   9.1322   9.8349  10.5833

          k =-0.2500 0.4167-0.0833 (  1687 PWs)   bands (ev):

    -4.9106   1.8418   3.6811   4.8104   8.3436   9.1344  10.2406  10.6297

          k =-0.3333 0.5000-0.1667 (  1681 PWs)   bands (ev):

    -4.3595   0.5926   3.4093   4.4984   8.3416   9.1049  10.3050  11.2475

          k = 0.5833-0.4167 0.7500 (  1684 PWs)   bands (ev):

    -3.7685  -0.4490   3.2782   4.2647   8.2595   8.9738  10.2371  12.4108

          k = 0.5000-0.3333 0.6667 (  1686 PWs)   bands (ev):

    -3.4513  -0.9202   3.2407   4.1782   8.2269   8.9092  10.1962  13.6598

          k =-0.1667 0.5000 0.0000 (  1675 PWs)   bands (ev):

    -4.7611   1.8583   3.5332   4.1959   7.5651   9.2519  10.4744  11.2658

          k =-0.2500 0.5833-0.0833 (  1683 PWs)   bands (ev):

    -4.2500   0.8483   3.0096   3.9232   7.8904   9.4772  10.2182  11.6493

          k = 0.6667-0.3333 0.8333 (  1689 PWs)   bands (ev):

    -3.6529  -0.1570   2.6563   3.7246   8.0105   9.9024  10.4856  11.6401

          k = 0.5833-0.2500 0.7500 (  1686 PWs)   bands (ev):

    -3.1846  -0.8247   2.4168   3.7075   8.1292   9.6381  11.5296  11.9249

          k = 0.5000-0.1667 0.6667 (  1686 PWs)   bands (ev):

    -3.3124  -0.6479   2.3077   3.8712   8.3585   9.4640  11.4376  12.3253

          k = 0.4167-0.0833 0.5833 (  1688 PWs)   bands (ev):

    -3.8721   0.1840   2.3900   4.1724   8.6839   9.3328  10.9464  11.4336

          k = 0.3333 0.0000 0.5000 (  1686 PWs)   bands (ev):

    -4.4486   1.1242   2.7979   4.5351   8.9373   9.0159  10.3971  10.9831

          k =-0.1667 0.6667-0.0000 (  1687 PWs)   bands (ev):

    -3.9815   0.6178   3.0422   3.4515   7.1877   8.2756  11.6669  12.7894

          k = 0.7500-0.2500 0.9167 (  1678 PWs)   bands (ev):

    -3.4015  -0.1873   2.4811   3.2460   7.5203   8.7763  11.3803  13.1485

          k = 0.6667-0.1667 0.8333 (  1685 PWs)   bands (ev):

    -2.8423  -0.8678   1.9835   3.2528   7.6719  10.0360  11.0912  13.0708

          k = 0.5833-0.0833 0.7500 (  1683 PWs)   bands (ev):

    -2.7785  -0.9321   1.7102   3.4418   7.9152  10.7500  11.7011  12.3227

          k = 0.5000 0.0000 0.6667 (  1677 PWs)   bands (ev):

    -3.2894  -0.3661   1.7949   3.7710   8.2830  10.3341  11.1599  12.4669

          k = 0.8333-0.1667 1.0000 (  1684 PWs)   bands (ev):

    -3.0122  -0.6532   2.7695   2.9599   7.0317   7.5497  13.0107  14.3315

          k = 0.7500-0.0833 0.9167 (  1680 PWs)   bands (ev):

    -2.4117  -1.2738   2.1785   2.9172   7.3223   8.4122  12.7070  14.1113

          k = 0.6667 0.0000 0.8333 (  1682 PWs)   bands (ev):

    -2.2729  -1.3766   1.7080   3.1056   7.5495   9.9000  12.2597  12.6451

          k =-0.1667-1.0000 0.0000 (  1686 PWs)   bands (ev):

    -1.8861  -1.8861   2.7365   2.7365   7.1414   7.1414  14.4251  14.4251

          k = 0.6667-0.3333 1.0000 (  1678 PWs)   bands (ev):

    -3.7092   0.1826   2.3473   3.5663   8.5968   9.4815   9.8801  12.6562

          k = 0.5833-0.2500 0.9167 (  1684 PWs)   bands (ev):

    -3.1142  -0.5563   2.0115   3.2477   8.9737   9.4842  10.4262  13.0765

          k = 0.5000-0.1667 0.8333 (  1688 PWs)   bands (ev):

    -2.7742  -0.9615   1.9187   3.1253   9.1390   9.2329  11.7732  12.1111

          k = 0.6667-0.1667 1.0000 (  1678 PWs)   bands (ev):

    -2.8116  -0.7944   2.1600   2.7566   8.4404   8.8544  11.0186  13.8495

          k = 0.5833-0.0833 0.9167 (  1682 PWs)   bands (ev):

    -2.3149  -1.2814   1.8641   2.6091   8.7807  10.0319  10.7377  12.1096

          k = 0.5000 0.0000 0.8333 (  1682 PWs)   bands (ev):

    -2.5378  -1.0577   1.7449   2.8229   9.0750  10.1897  10.6573  11.8643

          k =-0.3333-1.0000 0.0000 (  1678 PWs)   bands (ev):

    -1.8135  -1.8135   2.2825   2.2825   8.5154   8.5154  12.3672  12.3672

          k =-0.5000-1.0000 0.0000 (  1708 PWs)   bands (ev):

    -1.7748  -1.7748   2.0883   2.0883  10.0384  10.0384  10.6115  10.6115

     the Fermi energy is     6.1331 ev

     Writing output data file si.save/
 
     init_run     :      0.27s CPU      0.30s WALL (       1 calls)
     electrons    :      7.93s CPU      8.05s WALL (       1 calls)

     Called by init_run:
     wfcinit      :      0.00s CPU      0.00s WALL (       1 calls)
     potinit      :      0.02s CPU      0.02s WALL (       1 calls)
     hinit0       :      0.21s CPU      0.22s WALL (       1 calls)

     Called by electrons:
     c_bands      :      7.91s CPU      8.03s WALL (       1 calls)
     v_of_rho     :      0.02s CPU      0.02s WALL (       1 calls)
     newd         :      0.01s CPU      0.03s WALL (       1 calls)

     Called by c_bands:
     init_us_2    :      0.03s CPU      0.03s WALL (      72 calls)
     cegterg      :      7.20s CPU      7.31s WALL (      93 calls)

     Called by sum_band:

     Called by *egterg:
     h_psi        :      6.11s CPU      6.21s WALL (    1519 calls)
     s_psi        :      0.18s CPU      0.18s WALL (    1519 calls)
     g_psi        :      0.07s CPU      0.07s WALL (    1354 calls)
     cdiaghg      :      0.35s CPU      0.35s WALL (    1426 calls)

     Called by h_psi:
     h_psi:pot    :      6.08s CPU      6.18s WALL (    1519 calls)
     h_psi:calbec :      0.47s CPU      0.48s WALL (    1519 calls)
     vloc_psi     :      5.41s CPU      5.50s WALL (    1519 calls)
     add_vuspsi   :      0.19s CPU      0.20s WALL (    1519 calls)

     General routines
     calbec       :      0.46s CPU      0.47s WALL (    1519 calls)
     fft          :      0.01s CPU      0.01s WALL (      12 calls)
     fftw         :      4.75s CPU      4.83s WALL (   16510 calls)
     davcio       :      0.01s CPU      0.01s WALL (     144 calls)
 
     Parallel routines
     fft_scatt_xy :      0.52s CPU      0.53s WALL (   16522 calls)
     fft_scatt_yz :      1.41s CPU      1.43s WALL (   16522 calls)
 
     PWSCF        :      8.87s CPU      9.06s WALL

 
   This run was terminated on:  22:13: 6  26Jun2019            

=------------------------------------------------------------------------------=
   JOB DONE.
=------------------------------------------------------------------------------=
