
     Program PWSCF v.6.1 (svn rev. 13369) starts on 30Jul2019 at 14:13:33 

     This program is part of the open-source Quantum ESPRESSO suite
     for quantum simulation of materials; please cite
         "P. Giannozzi et al., J. Phys.:Condens. Matter 21 395502 (2009);
          URL http://www.quantum-espresso.org", 
     in publications or presentations arising from this work. More details at
     http://www.quantum-espresso.org/quote

     Parallel version (MPI), running on    12 processors
     R & G space division:  proc/nbgrp/npool/nimage =      12
     Reading input from si.supercell_2_vac_2_relax.in

     Current dimensions of program PWSCF are:
     Max number of different atomic species (ntypx) = 10
     Max number of k-points (npk) =  40000
     Max angular momentum in pseudopotentials (lmaxx) =  3

     Subspace diagonalization in iterative solution of the eigenvalue problem:
     a serial algorithm will be used

 
     Parallelization info
     --------------------
     sticks:   dense  smooth     PW     G-vecs:    dense   smooth      PW
     Min         452     452    120                25137    25137    3448
     Max         453     453    121                25139    25139    3451
     Sum        5433    5433   1449               301651   301651   41395
 


     bravais-lattice index     =            1
     lattice parameter (alat)  =      20.6714  a.u.
     unit-cell volume          =    8833.0058 (a.u.)^3
     number of atoms/cell      =           63
     number of atomic types    =            1
     number of electrons       =       252.00
     number of Kohn-Sham states=          126
     kinetic-energy cutoff     =      40.0000  Ry
     charge density cutoff     =     160.0000  Ry
     convergence threshold     =      1.0E-08
     mixing beta               =       0.7000
     number of iterations used =            8  plain     mixing
     Exchange-correlation      = PBE ( 1  4  3  4 0 0)
     nstep                     =           50


     celldm(1)=  20.671382  celldm(2)=   0.000000  celldm(3)=   0.000000
     celldm(4)=   0.000000  celldm(5)=   0.000000  celldm(6)=   0.000000

     crystal axes: (cart. coord. in units of alat)
               a(1) = (   1.000000   0.000000   0.000000 )  
               a(2) = (   0.000000   1.000000   0.000000 )  
               a(3) = (   0.000000   0.000000   1.000000 )  

     reciprocal axes: (cart. coord. in units 2 pi/alat)
               b(1) = (  1.000000  0.000000  0.000000 )  
               b(2) = (  0.000000  1.000000  0.000000 )  
               b(3) = (  0.000000  0.000000  1.000000 )  


     PseudoPot. # 1 for Si read from file:
     ~/download/SSSP_precision_pseudos/Si.pbe-n-rrkjus_psl.1.0.0.UPF
     MD5 check sum: Not computed, couldn't open file
     Pseudo is Ultrasoft + core correction, Zval =  4.0
     Generated using "atomic" code by A. Dal Corso  v.5.1
     Using radial grid of 1141 points,  6 beta functions with: 
                l(1) =   0
                l(2) =   0
                l(3) =   1
                l(4) =   1
                l(5) =   2
                l(6) =   2
     Q(r) pseudized with 0 coefficients 


     atomic species   valence    mass     pseudopotential
        Si             4.00    28.08550     Si( 1.00)

     No symmetry found



   Cartesian axes

     site n.     atom                  positions (alat units)
         1           Si  tau(   1) = (   0.0000000   0.0000000   0.0000000  )
         2           Si  tau(   2) = (   0.5000000   0.0000000   0.0000000  )
         3           Si  tau(   3) = (   0.0000000   0.5000000   0.0000000  )
         4           Si  tau(   4) = (   0.5000000   0.5000000   0.0000000  )
         5           Si  tau(   5) = (   0.2500000   0.2500000   0.0000000  )
         6           Si  tau(   6) = (   0.7500000   0.2500000   0.0000000  )
         7           Si  tau(   7) = (   0.2500000   0.7500000   0.0000000  )
         8           Si  tau(   8) = (   0.7500000   0.7500000   0.0000000  )
         9           Si  tau(   9) = (   0.1250000   0.1250000   0.1250000  )
        10           Si  tau(  10) = (   0.6250000   0.1250000   0.1250000  )
        11           Si  tau(  11) = (   0.1250000   0.6250000   0.1250000  )
        12           Si  tau(  12) = (   0.6250000   0.6250000   0.1250000  )
        13           Si  tau(  13) = (   0.3750000   0.3750000   0.1250000  )
        14           Si  tau(  14) = (   0.8750000   0.3750000   0.1250000  )
        15           Si  tau(  15) = (   0.3750000   0.8750000   0.1250000  )
        16           Si  tau(  16) = (   0.8750000   0.8750000   0.1250000  )
        17           Si  tau(  17) = (   0.2500000   0.0000000   0.2500000  )
        18           Si  tau(  18) = (   0.7500000   0.0000000   0.2500000  )
        19           Si  tau(  19) = (   0.2500000   0.5000000   0.2500000  )
        20           Si  tau(  20) = (   0.7500000   0.5000000   0.2500000  )
        21           Si  tau(  21) = (   0.5000000   0.2500000   0.2500000  )
        22           Si  tau(  22) = (   0.0000000   0.2500000   0.2500000  )
        23           Si  tau(  23) = (   0.5000000   0.7500000   0.2500000  )
        24           Si  tau(  24) = (   0.0000000   0.7500000   0.2500000  )
        25           Si  tau(  25) = (   0.3750000   0.1250000   0.3750000  )
        26           Si  tau(  26) = (   0.8750000   0.1250000   0.3750000  )
        27           Si  tau(  27) = (   0.3750000   0.6250000   0.3750000  )
        28           Si  tau(  28) = (   0.8750000   0.6250000   0.3750000  )
        29           Si  tau(  29) = (   0.6250000   0.3750000   0.3750000  )
        30           Si  tau(  30) = (   0.1250000   0.3750000   0.3750000  )
        31           Si  tau(  31) = (   0.6250000   0.8750000   0.3750000  )
        32           Si  tau(  32) = (   0.1250000   0.8750000   0.3750000  )
        33           Si  tau(  33) = (   0.0000000   0.0000000   0.5000000  )
        34           Si  tau(  34) = (   0.5000000   0.0000000   0.5000000  )
        35           Si  tau(  35) = (   0.0000000   0.5000000   0.5000000  )
        36           Si  tau(  36) = (   0.2500000   0.2500000   0.5000000  )
        37           Si  tau(  37) = (   0.7500000   0.2500000   0.5000000  )
        38           Si  tau(  38) = (   0.2500000   0.7500000   0.5000000  )
        39           Si  tau(  39) = (   0.7500000   0.7500000   0.5000000  )
        40           Si  tau(  40) = (   0.1250000   0.1250000   0.6250000  )
        41           Si  tau(  41) = (   0.6250000   0.1250000   0.6250000  )
        42           Si  tau(  42) = (   0.1250000   0.6250000   0.6250000  )
        43           Si  tau(  43) = (   0.6250000   0.6250000   0.6250000  )
        44           Si  tau(  44) = (   0.5000000   0.5000000   0.5000000  )
        45           Si  tau(  45) = (   0.8750000   0.3750000   0.6250000  )
        46           Si  tau(  46) = (   0.3750000   0.8750000   0.6250000  )
        47           Si  tau(  47) = (   0.8750000   0.8750000   0.6250000  )
        48           Si  tau(  48) = (   0.2500000   0.0000000   0.7500000  )
        49           Si  tau(  49) = (   0.7500000   0.0000000   0.7500000  )
        50           Si  tau(  50) = (   0.2500000   0.5000000   0.7500000  )
        51           Si  tau(  51) = (   0.7500000   0.5000000   0.7500000  )
        52           Si  tau(  52) = (   0.5000000   0.2500000   0.7500000  )
        53           Si  tau(  53) = (   0.0000000   0.2500000   0.7500000  )
        54           Si  tau(  54) = (   0.5000000   0.7500000   0.7500000  )
        55           Si  tau(  55) = (   0.0000000   0.7500000   0.7500000  )
        56           Si  tau(  56) = (   0.3750000   0.1250000   0.8750000  )
        57           Si  tau(  57) = (   0.8750000   0.1250000   0.8750000  )
        58           Si  tau(  58) = (   0.3750000   0.6250000   0.8750000  )
        59           Si  tau(  59) = (   0.8750000   0.6250000   0.8750000  )
        60           Si  tau(  60) = (   0.6250000   0.3750000   0.8750000  )
        61           Si  tau(  61) = (   0.1250000   0.3750000   0.8750000  )
        62           Si  tau(  62) = (   0.6250000   0.8750000   0.8750000  )
        63           Si  tau(  63) = (   0.1250000   0.8750000   0.8750000  )

     number of k points=    32
                       cart. coord. in units 2pi/alat
        k(    1) = (   0.1250000   0.1250000   0.1250000), wk =   0.0625000
        k(    2) = (   0.1250000   0.1250000   0.3750000), wk =   0.0625000
        k(    3) = (   0.1250000   0.1250000  -0.3750000), wk =   0.0625000
        k(    4) = (   0.1250000   0.1250000  -0.1250000), wk =   0.0625000
        k(    5) = (   0.1250000   0.3750000   0.1250000), wk =   0.0625000
        k(    6) = (   0.1250000   0.3750000   0.3750000), wk =   0.0625000
        k(    7) = (   0.1250000   0.3750000  -0.3750000), wk =   0.0625000
        k(    8) = (   0.1250000   0.3750000  -0.1250000), wk =   0.0625000
        k(    9) = (   0.1250000  -0.3750000   0.1250000), wk =   0.0625000
        k(   10) = (   0.1250000  -0.3750000   0.3750000), wk =   0.0625000
        k(   11) = (   0.1250000  -0.3750000  -0.3750000), wk =   0.0625000
        k(   12) = (   0.1250000  -0.3750000  -0.1250000), wk =   0.0625000
        k(   13) = (   0.1250000  -0.1250000   0.1250000), wk =   0.0625000
        k(   14) = (   0.1250000  -0.1250000   0.3750000), wk =   0.0625000
        k(   15) = (   0.1250000  -0.1250000  -0.3750000), wk =   0.0625000
        k(   16) = (   0.1250000  -0.1250000  -0.1250000), wk =   0.0625000
        k(   17) = (   0.3750000   0.1250000   0.1250000), wk =   0.0625000
        k(   18) = (   0.3750000   0.1250000   0.3750000), wk =   0.0625000
        k(   19) = (   0.3750000   0.1250000  -0.3750000), wk =   0.0625000
        k(   20) = (   0.3750000   0.1250000  -0.1250000), wk =   0.0625000
        k(   21) = (   0.3750000   0.3750000   0.1250000), wk =   0.0625000
        k(   22) = (   0.3750000   0.3750000   0.3750000), wk =   0.0625000
        k(   23) = (   0.3750000   0.3750000  -0.3750000), wk =   0.0625000
        k(   24) = (   0.3750000   0.3750000  -0.1250000), wk =   0.0625000
        k(   25) = (   0.3750000  -0.3750000   0.1250000), wk =   0.0625000
        k(   26) = (   0.3750000  -0.3750000   0.3750000), wk =   0.0625000
        k(   27) = (   0.3750000  -0.3750000  -0.3750000), wk =   0.0625000
        k(   28) = (   0.3750000  -0.3750000  -0.1250000), wk =   0.0625000
        k(   29) = (   0.3750000  -0.1250000   0.1250000), wk =   0.0625000
        k(   30) = (   0.3750000  -0.1250000   0.3750000), wk =   0.0625000
        k(   31) = (   0.3750000  -0.1250000  -0.3750000), wk =   0.0625000
        k(   32) = (   0.3750000  -0.1250000  -0.1250000), wk =   0.0625000

     Dense  grid:   301651 G-vectors     FFT dimensions: (  90,  90,  90)

     Estimated max dynamical RAM per process >     326.68MB

     Estimated total allocated dynamical RAM >    3920.21MB

     Check: negative/imaginary core charge=   -0.000003    0.000000

     Initial potential from superposition of free atoms

     starting charge  251.96477, renormalised to  252.00000
     Starting wfc are  252 randomized atomic wfcs

     total cpu time spent up to now is       62.9 secs

     per-process dynamical memory:   311.6 Mb

     Self-consistent Calculation

     iteration #  1     ecut=    40.00 Ry     beta=0.70
     Davidson diagonalization with overlap
     ethr =  1.00E-02,  avg # of iterations =  2.0

     Threshold (ethr) on eigenvalues was too large:
     Diagonalizing with lowered threshold

     Davidson diagonalization with overlap
     ethr =  6.53E-04,  avg # of iterations =  3.9

     total cpu time spent up to now is      271.7 secs

     total energy              =    -719.08235902 Ry
     Harris-Foulkes estimate   =    -719.49731965 Ry
     estimated scf accuracy    <       1.64868748 Ry

     iteration #  2     ecut=    40.00 Ry     beta=0.70
     Davidson diagonalization with overlap
     ethr =  6.54E-04,  avg # of iterations =  3.1

     total cpu time spent up to now is      363.1 secs

     total energy              =    -719.08580109 Ry
     Harris-Foulkes estimate   =    -719.20433812 Ry
     estimated scf accuracy    <       0.20991758 Ry

     iteration #  3     ecut=    40.00 Ry     beta=0.70
     Davidson diagonalization with overlap
     ethr =  8.33E-05,  avg # of iterations =  7.9

     total cpu time spent up to now is      535.5 secs

     total energy              =    -718.93573537 Ry
     Harris-Foulkes estimate   =    -719.37686638 Ry
     estimated scf accuracy    <       1.49298781 Ry

     iteration #  4     ecut=    40.00 Ry     beta=0.70
     Davidson diagonalization with overlap
     ethr =  8.33E-05,  avg # of iterations =  5.6

     total cpu time spent up to now is      687.4 secs

     total energy              =    -719.17013260 Ry
     Harris-Foulkes estimate   =    -719.20963275 Ry
     estimated scf accuracy    <       0.15866342 Ry

     iteration #  5     ecut=    40.00 Ry     beta=0.70
     Davidson diagonalization with overlap
     ethr =  6.30E-05,  avg # of iterations =  2.1

     total cpu time spent up to now is      790.4 secs

     total energy              =    -719.18332043 Ry
     Harris-Foulkes estimate   =    -719.18907375 Ry
     estimated scf accuracy    <       0.01804291 Ry

     iteration #  6     ecut=    40.00 Ry     beta=0.70
     Davidson diagonalization with overlap
     ethr =  7.16E-06,  avg # of iterations =  4.0

     total cpu time spent up to now is      920.3 secs

     total energy              =    -719.18716771 Ry
     Harris-Foulkes estimate   =    -719.18764557 Ry
     estimated scf accuracy    <       0.00108833 Ry

     iteration #  7     ecut=    40.00 Ry     beta=0.70
     Davidson diagonalization with overlap
     ethr =  4.32E-07,  avg # of iterations =  4.6

     total cpu time spent up to now is     1050.0 secs

     total energy              =    -719.18741825 Ry
     Harris-Foulkes estimate   =    -719.18755596 Ry
     estimated scf accuracy    <       0.00056415 Ry

     iteration #  8     ecut=    40.00 Ry     beta=0.70
     Davidson diagonalization with overlap
     ethr =  2.24E-07,  avg # of iterations =  2.2

     total cpu time spent up to now is     1151.9 secs

     total energy              =    -719.18743459 Ry
     Harris-Foulkes estimate   =    -719.18747730 Ry
     estimated scf accuracy    <       0.00019583 Ry

     iteration #  9     ecut=    40.00 Ry     beta=0.70
     Davidson diagonalization with overlap
     ethr =  7.77E-08,  avg # of iterations =  4.0

     total cpu time spent up to now is     1260.9 secs

     total energy              =    -719.18745373 Ry
     Harris-Foulkes estimate   =    -719.18745860 Ry
     estimated scf accuracy    <       0.00001635 Ry

     iteration # 10     ecut=    40.00 Ry     beta=0.70
     Davidson diagonalization with overlap
     ethr =  6.49E-09,  avg # of iterations =  5.1

     total cpu time spent up to now is     1399.7 secs

     total energy              =    -719.18745791 Ry
     Harris-Foulkes estimate   =    -719.18745921 Ry
     estimated scf accuracy    <       0.00000429 Ry

     iteration # 11     ecut=    40.00 Ry     beta=0.70
     Davidson diagonalization with overlap
     ethr =  1.70E-09,  avg # of iterations =  4.6

     total cpu time spent up to now is     1513.9 secs

     total energy              =    -719.18745864 Ry
     Harris-Foulkes estimate   =    -719.18745874 Ry
     estimated scf accuracy    <       0.00000036 Ry

     iteration # 12     ecut=    40.00 Ry     beta=0.70
     Davidson diagonalization with overlap
     ethr =  1.42E-10,  avg # of iterations =  6.3

     total cpu time spent up to now is     1665.0 secs

     total energy              =    -719.18745868 Ry
     Harris-Foulkes estimate   =    -719.18745877 Ry
     estimated scf accuracy    <       0.00000027 Ry

     iteration # 13     ecut=    40.00 Ry     beta=0.70
     Davidson diagonalization with overlap
     ethr =  1.05E-10,  avg # of iterations =  6.8

     total cpu time spent up to now is     1789.2 secs

     total energy              =    -719.18745872 Ry
     Harris-Foulkes estimate   =    -719.18745875 Ry
     estimated scf accuracy    <       0.00000013 Ry

     iteration # 14     ecut=    40.00 Ry     beta=0.70
     Davidson diagonalization with overlap
     ethr =  5.15E-11,  avg # of iterations =  6.3

     total cpu time spent up to now is     1909.8 secs

     total energy              =    -719.18745874 Ry
     Harris-Foulkes estimate   =    -719.18745874 Ry
     estimated scf accuracy    <       0.00000001 Ry

     iteration # 15     ecut=    40.00 Ry     beta=0.70
     Davidson diagonalization with overlap
     ethr =  4.07E-12,  avg # of iterations =  5.6

     total cpu time spent up to now is     2055.6 secs

     End of self-consistent calculation

          k = 0.1250 0.1250 0.1250 ( 37743 PWs)   bands (ev):

    -5.9236  -5.1587  -5.1587  -5.0711  -4.6371  -4.6371  -4.5579  -4.4265
    -4.4265  -4.3168  -3.9705  -3.9663  -3.9662  -3.9299  -3.9299  -3.9190
    -3.8274  -3.6918  -3.6918  -3.5896  -3.5379  -3.5379  -3.0095  -2.3801
    -2.3800  -2.3577  -2.2046  -2.2041  -2.2040  -2.1486  -2.1486  -1.7177
    -1.4612  -1.4555  -1.4555  -1.4101  -1.4099  -1.4099  -1.3258  -1.3257
    -1.0557  -0.9373  -0.9372  -0.7630  -0.4111  -0.2307  -0.2307   0.0489
     0.2569   0.2571   0.2571   0.3516   0.3516   0.7491   0.8975   0.8975
     1.4084   1.6507   1.6507   1.8378   1.8510   1.8510   1.8657   1.8886
     1.8886   1.9698   1.9778   1.9778   2.2382   2.2727   2.2902   2.2903
     2.3369   2.3370   2.4198   2.4369   2.4369   2.4471   2.5225   2.5642
     2.5642   2.6980   2.6980   2.7586   2.7647   2.7647   2.8895   2.8896
     3.0597   3.1031   3.2248   3.2249   3.6724   3.6724   3.7035   3.7641
     3.8700   3.8701   4.0570   4.1924   4.1924   4.2061   4.2181   4.2198
     4.2198   4.2604   4.2650   4.2650   4.2934   4.2934   4.3078   4.3339
     4.3339   4.4239   4.4239   4.5326   4.6149   4.6150   4.6218   4.7432
     4.7432   4.8018   5.1419   5.4970   5.4970   6.1608

          k = 0.1250 0.1250 0.3750 ( 37741 PWs)   bands (ev):

    -5.7959  -5.5189  -5.0354  -4.9862  -4.7869  -4.7149  -4.5212  -4.4722
    -4.3106  -4.2901  -4.2146  -4.0912  -3.9678  -3.8858  -3.8684  -3.7692
    -3.6705  -3.5675  -3.4644  -3.4046  -3.2696  -3.1739  -3.0694  -2.8819
    -2.7947  -2.6844  -2.5895  -2.4331  -2.3294  -2.3154  -2.2281  -1.8018
    -1.4452  -1.4368  -1.3674  -1.2101  -1.0741  -0.9999  -0.8507  -0.8477
    -0.7684  -0.6978  -0.6614  -0.6357  -0.6107  -0.4866  -0.3449  -0.2879
    -0.2528  -0.1673  -0.1422   0.2665   0.5019   0.7774   0.8029   1.1318
     1.3060   1.4782   1.5215   1.6623   1.6680   1.7297   1.7661   1.8793
     1.8923   1.9731   1.9944   2.0534   2.0890   2.1405   2.2062   2.4500
     2.4524   2.5869   2.6625   2.6846   2.7731   2.8046   2.8828   2.8984
     2.9230   2.9381   2.9753   2.9914   3.0810   3.0923   3.1000   3.2080
     3.2100   3.2621   3.3003   3.3445   3.3505   3.4049   3.4957   3.5178
     3.5857   3.6278   3.6657   3.7213   3.7505   3.7732   3.8421   3.8878
     3.9292   3.9962   4.0651   4.1852   4.2245   4.3119   4.3493   4.3591
     4.3809   4.4293   4.4363   4.5085   4.6105   4.6889   4.7446   4.7683
     4.7761   4.8533   5.0093   5.2093   5.3077   5.9056

          k = 0.1250 0.1250-0.3750 ( 37741 PWs)   bands (ev):

    -5.7959  -5.5189  -5.0354  -4.9862  -4.7869  -4.7149  -4.5212  -4.4722
    -4.3106  -4.2901  -4.2146  -4.0912  -3.9678  -3.8858  -3.8684  -3.7693
    -3.6705  -3.5675  -3.4644  -3.4046  -3.2696  -3.1739  -3.0694  -2.8819
    -2.7947  -2.6844  -2.5895  -2.4331  -2.3294  -2.3154  -2.2281  -1.8018
    -1.4452  -1.4368  -1.3674  -1.2101  -1.0741  -0.9999  -0.8507  -0.8477
    -0.7684  -0.6978  -0.6614  -0.6357  -0.6107  -0.4866  -0.3449  -0.2879
    -0.2528  -0.1672  -0.1422   0.2665   0.5019   0.7773   0.8029   1.1318
     1.3060   1.4782   1.5215   1.6623   1.6680   1.7297   1.7661   1.8793
     1.8923   1.9731   1.9944   2.0534   2.0890   2.1406   2.2062   2.4500
     2.4524   2.5869   2.6625   2.6845   2.7731   2.8046   2.8828   2.8984
     2.9230   2.9381   2.9753   2.9913   3.0810   3.0923   3.1000   3.2080
     3.2100   3.2621   3.3003   3.3445   3.3505   3.4049   3.4958   3.5178
     3.5857   3.6278   3.6657   3.7213   3.7505   3.7732   3.8421   3.8878
     3.9292   3.9963   4.0651   4.1852   4.2245   4.3120   4.3494   4.3590
     4.3809   4.4293   4.4362   4.5086   4.6105   4.6889   4.7446   4.7683
     4.7761   4.8533   5.0092   5.2092   5.3077   5.9056

          k = 0.1250 0.1250-0.1250 ( 37743 PWs)   bands (ev):

    -5.9236  -5.1587  -5.1587  -5.0711  -4.6371  -4.6371  -4.5579  -4.4265
    -4.4264  -4.3168  -3.9705  -3.9662  -3.9662  -3.9299  -3.9299  -3.9190
    -3.8274  -3.6918  -3.6918  -3.5896  -3.5379  -3.5379  -3.0095  -2.3801
    -2.3801  -2.3577  -2.2046  -2.2040  -2.2040  -2.1486  -2.1486  -1.7177
    -1.4611  -1.4555  -1.4555  -1.4101  -1.4099  -1.4099  -1.3258  -1.3257
    -1.0557  -0.9373  -0.9373  -0.7630  -0.4111  -0.2307  -0.2307   0.0490
     0.2568   0.2571   0.2571   0.3516   0.3516   0.7491   0.8975   0.8975
     1.4084   1.6507   1.6507   1.8378   1.8510   1.8510   1.8657   1.8886
     1.8886   1.9698   1.9778   1.9778   2.2383   2.2727   2.2903   2.2903
     2.3369   2.3369   2.4198   2.4369   2.4369   2.4471   2.5225   2.5642
     2.5642   2.6980   2.6980   2.7587   2.7647   2.7647   2.8896   2.8896
     3.0596   3.1031   3.2248   3.2249   3.6724   3.6724   3.7035   3.7641
     3.8700   3.8700   4.0570   4.1924   4.1924   4.2061   4.2181   4.2198
     4.2198   4.2604   4.2650   4.2650   4.2933   4.2934   4.3079   4.3340
     4.3340   4.4240   4.4240   4.5325   4.6149   4.6149   4.6218   4.7432
     4.7432   4.8018   5.1419   5.4970   5.4970   6.1608

          k = 0.1250 0.3750 0.1250 ( 37741 PWs)   bands (ev):

    -5.7959  -5.5189  -5.0354  -4.9862  -4.7869  -4.7149  -4.5212  -4.4722
    -4.3106  -4.2901  -4.2146  -4.0912  -3.9678  -3.8858  -3.8684  -3.7692
    -3.6706  -3.5675  -3.4644  -3.4046  -3.2696  -3.1739  -3.0694  -2.8819
    -2.7947  -2.6844  -2.5895  -2.4331  -2.3294  -2.3154  -2.2280  -1.8019
    -1.4452  -1.4368  -1.3674  -1.2101  -1.0741  -0.9999  -0.8507  -0.8477
    -0.7684  -0.6978  -0.6615  -0.6356  -0.6107  -0.4866  -0.3449  -0.2879
    -0.2528  -0.1673  -0.1422   0.2665   0.5019   0.7774   0.8029   1.1318
     1.3060   1.4782   1.5215   1.6623   1.6680   1.7297   1.7661   1.8793
     1.8923   1.9731   1.9944   2.0534   2.0890   2.1405   2.2062   2.4500
     2.4523   2.5869   2.6625   2.6845   2.7731   2.8046   2.8828   2.8984
     2.9230   2.9382   2.9753   2.9914   3.0810   3.0923   3.1000   3.2080
     3.2100   3.2621   3.3003   3.3445   3.3505   3.4049   3.4957   3.5178
     3.5857   3.6278   3.6657   3.7213   3.7505   3.7732   3.8421   3.8878
     3.9291   3.9963   4.0651   4.1852   4.2245   4.3120   4.3494   4.3590
     4.3810   4.4293   4.4362   4.5086   4.6106   4.6889   4.7447   4.7683
     4.7761   4.8533   5.0093   5.2093   5.3077   5.9057

          k = 0.1250 0.3750 0.3750 ( 37741 PWs)   bands (ev):

    -5.6685  -5.4252  -5.3675  -5.1228  -4.8884  -4.6756  -4.6097  -4.4159
    -4.3661  -4.1965  -4.1358  -3.9613  -3.8932  -3.8265  -3.6738  -3.6276
    -3.4410  -3.4215  -3.3898  -3.2695  -3.1898  -3.1502  -3.1406  -3.0500
    -2.9933  -2.9542  -2.8952  -2.7389  -2.5379  -2.4270  -2.3643  -1.8393
    -1.3443  -1.2639  -1.1526  -0.9756  -0.9141  -0.9067  -0.8660  -0.8214
    -0.8018  -0.7237  -0.6531  -0.6154  -0.5882  -0.4943  -0.4644  -0.2646
    -0.0107   0.1169   0.1911   0.3170   0.3388   0.4363   0.4372   0.7723
     0.9400   0.9514   1.5083   1.6041   1.7136   1.7419   1.9479   2.0022
     2.0432   2.0940   2.1650   2.2367   2.2648   2.2756   2.3963   2.4226
     2.5048   2.5159   2.6091   2.6194   2.7596   2.8719   2.9160   2.9468
     2.9798   3.0088   3.0438   3.0588   3.1207   3.1470   3.2448   3.2498
     3.2748   3.2931   3.3330   3.3767   3.3773   3.4374   3.4614   3.5035
     3.5382   3.5928   3.7169   3.7254   3.7584   3.7828   3.7835   3.8370
     3.8641   3.9118   3.9626   4.0113   4.0798   4.1227   4.1790   4.1804
     4.2759   4.3052   4.3611   4.4219   4.4900   4.6240   4.7223   4.7933
     4.8678   5.0775   5.0804   5.2333   5.4790   5.8804

          k = 0.1250 0.3750-0.3750 ( 37741 PWs)   bands (ev):

    -5.6685  -5.4252  -5.3675  -5.1228  -4.8884  -4.6756  -4.6097  -4.4159
    -4.3661  -4.1965  -4.1358  -3.9613  -3.8932  -3.8265  -3.6739  -3.6276
    -3.4410  -3.4215  -3.3898  -3.2694  -3.1898  -3.1501  -3.1407  -3.0500
    -2.9933  -2.9541  -2.8952  -2.7389  -2.5379  -2.4270  -2.3643  -1.8392
    -1.3443  -1.2639  -1.1525  -0.9756  -0.9142  -0.9066  -0.8660  -0.8215
    -0.8018  -0.7237  -0.6531  -0.6154  -0.5882  -0.4943  -0.4645  -0.2646
    -0.0107   0.1169   0.1911   0.3170   0.3388   0.4363   0.4372   0.7723
     0.9400   0.9514   1.5083   1.6041   1.7136   1.7419   1.9479   2.0022
     2.0432   2.0940   2.1650   2.2367   2.2648   2.2756   2.3963   2.4226
     2.5048   2.5158   2.6091   2.6194   2.7596   2.8720   2.9160   2.9468
     2.9799   3.0088   3.0438   3.0588   3.1206   3.1471   3.2448   3.2498
     3.2748   3.2931   3.3330   3.3767   3.3773   3.4374   3.4614   3.5035
     3.5382   3.5928   3.7170   3.7254   3.7584   3.7828   3.7836   3.8370
     3.8641   3.9118   3.9627   4.0113   4.0798   4.1226   4.1790   4.1804
     4.2759   4.3052   4.3611   4.4219   4.4900   4.6240   4.7223   4.7933
     4.8678   5.0775   5.0803   5.2333   5.4790   5.8804

          k = 0.1250 0.3750-0.1250 ( 37741 PWs)   bands (ev):

    -5.7959  -5.5189  -5.0354  -4.9862  -4.7869  -4.7149  -4.5212  -4.4722
    -4.3106  -4.2901  -4.2146  -4.0912  -3.9678  -3.8858  -3.8684  -3.7692
    -3.6706  -3.5675  -3.4644  -3.4046  -3.2696  -3.1739  -3.0694  -2.8819
    -2.7947  -2.6844  -2.5895  -2.4331  -2.3294  -2.3153  -2.2280  -1.8018
    -1.4452  -1.4368  -1.3674  -1.2101  -1.0741  -0.9999  -0.8507  -0.8477
    -0.7684  -0.6978  -0.6615  -0.6357  -0.6107  -0.4866  -0.3449  -0.2879
    -0.2528  -0.1673  -0.1422   0.2665   0.5019   0.7773   0.8029   1.1318
     1.3060   1.4782   1.5215   1.6623   1.6680   1.7297   1.7661   1.8793
     1.8923   1.9731   1.9944   2.0534   2.0890   2.1406   2.2062   2.4500
     2.4524   2.5869   2.6625   2.6845   2.7731   2.8046   2.8828   2.8984
     2.9230   2.9381   2.9753   2.9913   3.0810   3.0923   3.1000   3.2080
     3.2100   3.2621   3.3003   3.3445   3.3505   3.4049   3.4957   3.5178
     3.5857   3.6278   3.6657   3.7213   3.7505   3.7732   3.8421   3.8878
     3.9292   3.9963   4.0651   4.1852   4.2245   4.3120   4.3494   4.3590
     4.3810   4.4293   4.4362   4.5086   4.6105   4.6889   4.7447   4.7683
     4.7761   4.8533   5.0092   5.2093   5.3077   5.9056

          k = 0.1250-0.3750 0.1250 ( 37741 PWs)   bands (ev):

    -5.7959  -5.5189  -5.0354  -4.9862  -4.7869  -4.7149  -4.5212  -4.4722
    -4.3106  -4.2901  -4.2146  -4.0912  -3.9678  -3.8858  -3.8684  -3.7692
    -3.6706  -3.5675  -3.4644  -3.4046  -3.2696  -3.1739  -3.0694  -2.8819
    -2.7947  -2.6844  -2.5895  -2.4331  -2.3294  -2.3154  -2.2280  -1.8019
    -1.4452  -1.4368  -1.3674  -1.2101  -1.0741  -0.9999  -0.8507  -0.8477
    -0.7684  -0.6978  -0.6615  -0.6356  -0.6107  -0.4866  -0.3449  -0.2879
    -0.2528  -0.1673  -0.1422   0.2665   0.5019   0.7774   0.8029   1.1318
     1.3060   1.4782   1.5215   1.6623   1.6680   1.7297   1.7661   1.8793
     1.8923   1.9731   1.9944   2.0534   2.0890   2.1405   2.2062   2.4500
     2.4523   2.5869   2.6625   2.6845   2.7731   2.8046   2.8828   2.8984
     2.9230   2.9382   2.9753   2.9914   3.0810   3.0923   3.1000   3.2080
     3.2100   3.2621   3.3003   3.3445   3.3505   3.4049   3.4957   3.5178
     3.5857   3.6278   3.6657   3.7213   3.7505   3.7732   3.8421   3.8878
     3.9291   3.9962   4.0651   4.1852   4.2245   4.3120   4.3494   4.3590
     4.3810   4.4293   4.4362   4.5086   4.6106   4.6889   4.7447   4.7683
     4.7761   4.8533   5.0093   5.2093   5.3077   5.9056

          k = 0.1250-0.3750 0.3750 ( 37741 PWs)   bands (ev):

    -5.6685  -5.4252  -5.3675  -5.1228  -4.8884  -4.6756  -4.6097  -4.4159
    -4.3661  -4.1965  -4.1358  -3.9613  -3.8932  -3.8264  -3.6739  -3.6276
    -3.4410  -3.4215  -3.3898  -3.2694  -3.1898  -3.1501  -3.1407  -3.0500
    -2.9933  -2.9541  -2.8952  -2.7389  -2.5379  -2.4270  -2.3643  -1.8393
    -1.3443  -1.2639  -1.1525  -0.9756  -0.9142  -0.9066  -0.8660  -0.8214
    -0.8017  -0.7237  -0.6531  -0.6154  -0.5882  -0.4943  -0.4645  -0.2646
    -0.0107   0.1169   0.1911   0.3170   0.3388   0.4363   0.4372   0.7723
     0.9399   0.9514   1.5083   1.6041   1.7136   1.7419   1.9479   2.0022
     2.0432   2.0940   2.1650   2.2367   2.2648   2.2756   2.3963   2.4226
     2.5048   2.5158   2.6091   2.6194   2.7596   2.8719   2.9160   2.9468
     2.9799   3.0088   3.0438   3.0588   3.1207   3.1471   3.2448   3.2498
     3.2748   3.2931   3.3330   3.3767   3.3773   3.4374   3.4614   3.5035
     3.5381   3.5928   3.7170   3.7254   3.7584   3.7828   3.7835   3.8370
     3.8641   3.9118   3.9626   4.0113   4.0798   4.1226   4.1790   4.1804
     4.2759   4.3052   4.3611   4.4220   4.4900   4.6240   4.7223   4.7934
     4.8678   5.0775   5.0803   5.2333   5.4790   5.8804

          k = 0.1250-0.3750-0.3750 ( 37741 PWs)   bands (ev):

    -5.6685  -5.4252  -5.3675  -5.1228  -4.8884  -4.6756  -4.6097  -4.4159
    -4.3661  -4.1965  -4.1358  -3.9613  -3.8932  -3.8265  -3.6738  -3.6276
    -3.4410  -3.4215  -3.3898  -3.2695  -3.1898  -3.1502  -3.1406  -3.0500
    -2.9933  -2.9542  -2.8952  -2.7389  -2.5379  -2.4270  -2.3642  -1.8393
    -1.3443  -1.2639  -1.1526  -0.9756  -0.9141  -0.9067  -0.8660  -0.8214
    -0.8018  -0.7237  -0.6531  -0.6154  -0.5882  -0.4943  -0.4644  -0.2646
    -0.0107   0.1169   0.1911   0.3170   0.3388   0.4363   0.4372   0.7723
     0.9400   0.9514   1.5083   1.6041   1.7136   1.7419   1.9479   2.0022
     2.0432   2.0940   2.1650   2.2367   2.2648   2.2756   2.3963   2.4226
     2.5048   2.5159   2.6091   2.6194   2.7596   2.8719   2.9160   2.9468
     2.9798   3.0088   3.0438   3.0588   3.1207   3.1470   3.2448   3.2498
     3.2748   3.2931   3.3330   3.3767   3.3773   3.4374   3.4614   3.5035
     3.5382   3.5928   3.7170   3.7254   3.7584   3.7828   3.7835   3.8370
     3.8641   3.9118   3.9626   4.0113   4.0798   4.1227   4.1790   4.1804
     4.2759   4.3052   4.3611   4.4219   4.4900   4.6240   4.7223   4.7933
     4.8678   5.0775   5.0804   5.2333   5.4790   5.8804

          k = 0.1250-0.3750-0.1250 ( 37741 PWs)   bands (ev):

    -5.7959  -5.5189  -5.0354  -4.9862  -4.7869  -4.7149  -4.5212  -4.4722
    -4.3106  -4.2901  -4.2146  -4.0912  -3.9678  -3.8858  -3.8684  -3.7692
    -3.6705  -3.5675  -3.4644  -3.4046  -3.2696  -3.1740  -3.0694  -2.8819
    -2.7947  -2.6844  -2.5895  -2.4331  -2.3294  -2.3153  -2.2280  -1.8018
    -1.4452  -1.4368  -1.3674  -1.2101  -1.0741  -0.9999  -0.8507  -0.8477
    -0.7684  -0.6978  -0.6615  -0.6357  -0.6107  -0.4866  -0.3449  -0.2879
    -0.2528  -0.1673  -0.1422   0.2665   0.5019   0.7774   0.8029   1.1318
     1.3060   1.4782   1.5215   1.6623   1.6679   1.7297   1.7661   1.8793
     1.8923   1.9731   1.9944   2.0534   2.0890   2.1406   2.2062   2.4500
     2.4524   2.5869   2.6625   2.6845   2.7731   2.8046   2.8828   2.8984
     2.9230   2.9381   2.9753   2.9914   3.0810   3.0923   3.1000   3.2080
     3.2100   3.2621   3.3003   3.3445   3.3505   3.4049   3.4957   3.5178
     3.5857   3.6278   3.6657   3.7213   3.7505   3.7732   3.8421   3.8878
     3.9291   3.9962   4.0651   4.1852   4.2245   4.3119   4.3494   4.3591
     4.3809   4.4293   4.4363   4.5085   4.6105   4.6889   4.7447   4.7683
     4.7761   4.8533   5.0093   5.2093   5.3077   5.9056

          k = 0.1250-0.1250 0.1250 ( 37743 PWs)   bands (ev):

    -5.9236  -5.1587  -5.1587  -5.0711  -4.6371  -4.6371  -4.5579  -4.4265
    -4.4265  -4.3167  -3.9705  -3.9663  -3.9662  -3.9299  -3.9299  -3.9190
    -3.8274  -3.6918  -3.6918  -3.5896  -3.5379  -3.5379  -3.0095  -2.3801
    -2.3800  -2.3577  -2.2046  -2.2041  -2.2040  -2.1486  -2.1486  -1.7177
    -1.4612  -1.4555  -1.4555  -1.4101  -1.4099  -1.4099  -1.3258  -1.3257
    -1.0557  -0.9373  -0.9372  -0.7630  -0.4111  -0.2307  -0.2307   0.0490
     0.2569   0.2571   0.2571   0.3516   0.3516   0.7491   0.8975   0.8975
     1.4084   1.6507   1.6507   1.8378   1.8510   1.8510   1.8657   1.8886
     1.8886   1.9698   1.9778   1.9778   2.2382   2.2727   2.2902   2.2903
     2.3369   2.3370   2.4198   2.4369   2.4369   2.4471   2.5225   2.5641
     2.5642   2.6980   2.6980   2.7586   2.7647   2.7647   2.8895   2.8896
     3.0597   3.1031   3.2248   3.2249   3.6724   3.6724   3.7035   3.7641
     3.8700   3.8701   4.0570   4.1924   4.1924   4.2061   4.2181   4.2198
     4.2198   4.2605   4.2650   4.2650   4.2934   4.2934   4.3078   4.3339
     4.3340   4.4239   4.4239   4.5326   4.6149   4.6150   4.6218   4.7432
     4.7432   4.8018   5.1419   5.4970   5.4970   6.1608

          k = 0.1250-0.1250 0.3750 ( 37741 PWs)   bands (ev):

    -5.7959  -5.5189  -5.0354  -4.9862  -4.7869  -4.7148  -4.5212  -4.4722
    -4.3106  -4.2901  -4.2146  -4.0912  -3.9678  -3.8858  -3.8685  -3.7692
    -3.6705  -3.5675  -3.4644  -3.4046  -3.2696  -3.1739  -3.0694  -2.8819
    -2.7947  -2.6844  -2.5895  -2.4331  -2.3294  -2.3154  -2.2280  -1.8019
    -1.4452  -1.4368  -1.3673  -1.2101  -1.0741  -0.9999  -0.8507  -0.8477
    -0.7684  -0.6978  -0.6615  -0.6357  -0.6107  -0.4866  -0.3449  -0.2879
    -0.2528  -0.1673  -0.1422   0.2665   0.5019   0.7774   0.8029   1.1318
     1.3060   1.4782   1.5215   1.6623   1.6680   1.7297   1.7661   1.8793
     1.8923   1.9731   1.9944   2.0534   2.0890   2.1405   2.2062   2.4500
     2.4523   2.5869   2.6625   2.6845   2.7731   2.8046   2.8828   2.8984
     2.9230   2.9382   2.9753   2.9914   3.0810   3.0923   3.1000   3.2080
     3.2100   3.2621   3.3003   3.3445   3.3505   3.4049   3.4957   3.5178
     3.5857   3.6278   3.6657   3.7213   3.7505   3.7732   3.8421   3.8878
     3.9291   3.9963   4.0651   4.1852   4.2245   4.3120   4.3494   4.3590
     4.3810   4.4293   4.4362   4.5086   4.6106   4.6889   4.7446   4.7683
     4.7761   4.8533   5.0093   5.2093   5.3077   5.9056

          k = 0.1250-0.1250-0.3750 ( 37741 PWs)   bands (ev):

    -5.7959  -5.5189  -5.0354  -4.9862  -4.7869  -4.7148  -4.5212  -4.4722
    -4.3106  -4.2901  -4.2146  -4.0912  -3.9678  -3.8858  -3.8685  -3.7692
    -3.6705  -3.5675  -3.4644  -3.4046  -3.2696  -3.1739  -3.0694  -2.8819
    -2.7947  -2.6844  -2.5895  -2.4331  -2.3294  -2.3154  -2.2280  -1.8019
    -1.4452  -1.4368  -1.3673  -1.2101  -1.0741  -0.9999  -0.8507  -0.8477
    -0.7684  -0.6978  -0.6615  -0.6357  -0.6107  -0.4866  -0.3449  -0.2879
    -0.2528  -0.1673  -0.1422   0.2665   0.5019   0.7774   0.8029   1.1318
     1.3060   1.4782   1.5215   1.6623   1.6680   1.7297   1.7661   1.8793
     1.8923   1.9731   1.9944   2.0534   2.0890   2.1405   2.2062   2.4500
     2.4523   2.5869   2.6625   2.6845   2.7731   2.8046   2.8828   2.8984
     2.9230   2.9382   2.9753   2.9914   3.0810   3.0923   3.1000   3.2080
     3.2100   3.2621   3.3003   3.3445   3.3505   3.4049   3.4957   3.5178
     3.5857   3.6278   3.6657   3.7213   3.7505   3.7732   3.8421   3.8878
     3.9291   3.9963   4.0651   4.1852   4.2245   4.3120   4.3494   4.3590
     4.3810   4.4293   4.4362   4.5086   4.6106   4.6889   4.7446   4.7683
     4.7761   4.8533   5.0093   5.2093   5.3077   5.9056

          k = 0.1250-0.1250-0.1250 ( 37743 PWs)   bands (ev):

    -5.9236  -5.1587  -5.1587  -5.0711  -4.6371  -4.6371  -4.5579  -4.4265
    -4.4264  -4.3168  -3.9705  -3.9663  -3.9662  -3.9299  -3.9299  -3.9190
    -3.8274  -3.6918  -3.6918  -3.5896  -3.5379  -3.5379  -3.0095  -2.3801
    -2.3800  -2.3577  -2.2046  -2.2040  -2.2040  -2.1486  -2.1486  -1.7177
    -1.4612  -1.4555  -1.4555  -1.4101  -1.4099  -1.4099  -1.3257  -1.3257
    -1.0557  -0.9373  -0.9372  -0.7630  -0.4111  -0.2307  -0.2307   0.0489
     0.2569   0.2571   0.2571   0.3516   0.3516   0.7491   0.8975   0.8975
     1.4084   1.6507   1.6507   1.8378   1.8510   1.8510   1.8657   1.8886
     1.8886   1.9698   1.9778   1.9778   2.2382   2.2727   2.2902   2.2903
     2.3369   2.3369   2.4198   2.4369   2.4369   2.4471   2.5225   2.5642
     2.5642   2.6980   2.6980   2.7586   2.7647   2.7647   2.8895   2.8896
     3.0597   3.1031   3.2248   3.2249   3.6724   3.6724   3.7035   3.7641
     3.8700   3.8701   4.0570   4.1924   4.1924   4.2061   4.2181   4.2198
     4.2198   4.2604   4.2650   4.2650   4.2934   4.2934   4.3078   4.3339
     4.3340   4.4239   4.4239   4.5326   4.6149   4.6149   4.6218   4.7432
     4.7432   4.8018   5.1419   5.4970   5.4970   6.1608

          k = 0.3750 0.1250 0.1250 ( 37741 PWs)   bands (ev):

    -5.7959  -5.5189  -5.0354  -4.9862  -4.7869  -4.7149  -4.5212  -4.4722
    -4.3106  -4.2901  -4.2146  -4.0912  -3.9678  -3.8858  -3.8685  -3.7692
    -3.6705  -3.5675  -3.4644  -3.4046  -3.2696  -3.1739  -3.0694  -2.8819
    -2.7947  -2.6844  -2.5895  -2.4331  -2.3294  -2.3154  -2.2280  -1.8019
    -1.4452  -1.4368  -1.3674  -1.2101  -1.0741  -0.9999  -0.8507  -0.8477
    -0.7684  -0.6978  -0.6615  -0.6356  -0.6107  -0.4866  -0.3449  -0.2879
    -0.2528  -0.1673  -0.1422   0.2665   0.5019   0.7774   0.8029   1.1318
     1.3060   1.4782   1.5215   1.6623   1.6680   1.7297   1.7661   1.8793
     1.8923   1.9731   1.9944   2.0534   2.0890   2.1405   2.2062   2.4500
     2.4523   2.5869   2.6625   2.6845   2.7731   2.8046   2.8828   2.8984
     2.9230   2.9381   2.9753   2.9914   3.0810   3.0923   3.1000   3.2080
     3.2100   3.2621   3.3003   3.3445   3.3505   3.4049   3.4957   3.5178
     3.5857   3.6278   3.6657   3.7213   3.7505   3.7732   3.8421   3.8878
     3.9291   3.9963   4.0651   4.1852   4.2245   4.3120   4.3494   4.3590
     4.3810   4.4293   4.4362   4.5086   4.6106   4.6889   4.7446   4.7683
     4.7761   4.8533   5.0093   5.2093   5.3077   5.9057

          k = 0.3750 0.1250 0.3750 ( 37741 PWs)   bands (ev):

    -5.6685  -5.4252  -5.3675  -5.1228  -4.8884  -4.6756  -4.6097  -4.4159
    -4.3661  -4.1965  -4.1358  -3.9613  -3.8932  -3.8265  -3.6738  -3.6276
    -3.4410  -3.4215  -3.3898  -3.2695  -3.1898  -3.1502  -3.1406  -3.0500
    -2.9933  -2.9542  -2.8952  -2.7389  -2.5379  -2.4270  -2.3643  -1.8393
    -1.3443  -1.2639  -1.1526  -0.9756  -0.9141  -0.9067  -0.8660  -0.8214
    -0.8018  -0.7237  -0.6531  -0.6154  -0.5882  -0.4943  -0.4644  -0.2646
    -0.0107   0.1169   0.1910   0.3170   0.3388   0.4363   0.4372   0.7723
     0.9400   0.9514   1.5083   1.6041   1.7136   1.7419   1.9479   2.0022
     2.0432   2.0940   2.1650   2.2367   2.2648   2.2756   2.3963   2.4226
     2.5048   2.5159   2.6090   2.6194   2.7596   2.8719   2.9160   2.9468
     2.9798   3.0088   3.0438   3.0588   3.1207   3.1470   3.2448   3.2498
     3.2748   3.2931   3.3330   3.3767   3.3773   3.4374   3.4614   3.5035
     3.5382   3.5928   3.7169   3.7254   3.7584   3.7828   3.7835   3.8370
     3.8641   3.9118   3.9626   4.0113   4.0798   4.1227   4.1790   4.1804
     4.2759   4.3052   4.3611   4.4219   4.4900   4.6240   4.7223   4.7933
     4.8678   5.0775   5.0804   5.2333   5.4790   5.8804

          k = 0.3750 0.1250-0.3750 ( 37741 PWs)   bands (ev):

    -5.6685  -5.4252  -5.3675  -5.1228  -4.8884  -4.6756  -4.6098  -4.4159
    -4.3661  -4.1965  -4.1358  -3.9613  -3.8932  -3.8265  -3.6739  -3.6276
    -3.4410  -3.4215  -3.3898  -3.2695  -3.1898  -3.1501  -3.1407  -3.0500
    -2.9933  -2.9542  -2.8952  -2.7389  -2.5380  -2.4270  -2.3643  -1.8392
    -1.3443  -1.2639  -1.1526  -0.9756  -0.9142  -0.9066  -0.8660  -0.8215
    -0.8018  -0.7237  -0.6531  -0.6154  -0.5882  -0.4943  -0.4645  -0.2646
    -0.0107   0.1168   0.1911   0.3170   0.3388   0.4363   0.4372   0.7723
     0.9400   0.9514   1.5083   1.6041   1.7136   1.7419   1.9479   2.0022
     2.0432   2.0940   2.1651   2.2367   2.2648   2.2756   2.3963   2.4226
     2.5048   2.5158   2.6091   2.6194   2.7596   2.8720   2.9160   2.9468
     2.9799   3.0088   3.0438   3.0588   3.1206   3.1471   3.2448   3.2498
     3.2748   3.2931   3.3330   3.3767   3.3773   3.4374   3.4614   3.5035
     3.5382   3.5928   3.7170   3.7254   3.7584   3.7828   3.7836   3.8370
     3.8641   3.9118   3.9627   4.0113   4.0798   4.1226   4.1790   4.1804
     4.2759   4.3052   4.3611   4.4219   4.4900   4.6240   4.7223   4.7933
     4.8678   5.0775   5.0804   5.2333   5.4790   5.8804

          k = 0.3750 0.1250-0.1250 ( 37741 PWs)   bands (ev):

    -5.7959  -5.5189  -5.0354  -4.9862  -4.7869  -4.7149  -4.5212  -4.4722
    -4.3106  -4.2901  -4.2146  -4.0912  -3.9678  -3.8858  -3.8684  -3.7692
    -3.6705  -3.5675  -3.4644  -3.4046  -3.2696  -3.1739  -3.0694  -2.8819
    -2.7947  -2.6844  -2.5895  -2.4331  -2.3295  -2.3153  -2.2280  -1.8018
    -1.4452  -1.4368  -1.3674  -1.2101  -1.0741  -0.9999  -0.8507  -0.8477
    -0.7684  -0.6978  -0.6614  -0.6357  -0.6107  -0.4866  -0.3449  -0.2879
    -0.2528  -0.1673  -0.1422   0.2665   0.5019   0.7774   0.8029   1.1318
     1.3060   1.4782   1.5215   1.6623   1.6680   1.7297   1.7661   1.8793
     1.8923   1.9731   1.9944   2.0534   2.0890   2.1406   2.2062   2.4500
     2.4524   2.5869   2.6625   2.6845   2.7731   2.8046   2.8828   2.8984
     2.9230   2.9381   2.9753   2.9913   3.0810   3.0923   3.1000   3.2080
     3.2100   3.2621   3.3003   3.3445   3.3505   3.4049   3.4958   3.5178
     3.5857   3.6278   3.6657   3.7213   3.7505   3.7732   3.8421   3.8878
     3.9292   3.9963   4.0651   4.1852   4.2245   4.3120   4.3494   4.3590
     4.3810   4.4293   4.4362   4.5086   4.6105   4.6889   4.7446   4.7683
     4.7761   4.8533   5.0092   5.2092   5.3077   5.9056

          k = 0.3750 0.3750 0.1250 ( 37741 PWs)   bands (ev):

    -5.6685  -5.4252  -5.3675  -5.1228  -4.8884  -4.6756  -4.6097  -4.4159
    -4.3661  -4.1965  -4.1358  -3.9613  -3.8932  -3.8265  -3.6739  -3.6276
    -3.4410  -3.4215  -3.3898  -3.2695  -3.1898  -3.1501  -3.1407  -3.0500
    -2.9933  -2.9541  -2.8952  -2.7389  -2.5379  -2.4270  -2.3643  -1.8393
    -1.3443  -1.2639  -1.1525  -0.9756  -0.9142  -0.9066  -0.8660  -0.8214
    -0.8018  -0.7237  -0.6531  -0.6154  -0.5882  -0.4943  -0.4645  -0.2646
    -0.0107   0.1168   0.1911   0.3170   0.3388   0.4363   0.4372   0.7723
     0.9399   0.9514   1.5083   1.6041   1.7136   1.7419   1.9479   2.0022
     2.0432   2.0940   2.1650   2.2367   2.2648   2.2756   2.3963   2.4226
     2.5048   2.5158   2.6091   2.6194   2.7596   2.8720   2.9160   2.9468
     2.9799   3.0088   3.0438   3.0588   3.1207   3.1471   3.2448   3.2498
     3.2748   3.2931   3.3330   3.3767   3.3773   3.4374   3.4614   3.5036
     3.5381   3.5928   3.7170   3.7254   3.7584   3.7828   3.7836   3.8370
     3.8641   3.9118   3.9626   4.0113   4.0798   4.1226   4.1790   4.1804
     4.2759   4.3052   4.3611   4.4220   4.4900   4.6240   4.7223   4.7934
     4.8678   5.0775   5.0803   5.2333   5.4790   5.8804

          k = 0.3750 0.3750 0.3750 ( 37779 PWs)   bands (ev):

    -5.5421  -5.2992  -5.2992  -5.2312  -5.0449  -5.0449  -4.9291  -4.6899
    -3.8022  -3.8022  -3.7568  -3.6351  -3.6319  -3.6319  -3.6061  -3.6060
    -3.5820  -3.4936  -3.4936  -3.2775  -3.0948  -3.0947  -3.0925  -3.0557
    -3.0557  -3.0091  -3.0048  -3.0048  -2.9836  -2.9260  -2.9260  -1.8662
    -0.9019  -0.9019  -0.8098  -0.7861  -0.7861  -0.7858  -0.7479  -0.7479
    -0.6876  -0.6367  -0.6349  -0.6348  -0.5389  -0.5388  -0.3180  -0.2552
    -0.2545  -0.2544  -0.1253  -0.1253   0.1453   0.1588   0.1588   0.8735
     1.3426   1.6050   1.6050   1.8931   2.0230   2.0336   2.0336   2.0595
     2.0595   2.0723   2.1424   2.1424   2.1503   2.2430   2.2430   2.3561
     2.3563   2.3563   2.5466   2.6174   2.6349   2.6350   2.7020   2.7021
     2.7300   2.8376   2.8376   2.9273   2.9287   2.9287   3.0603   3.3739
     3.3786   3.3787   3.3907   3.3963   3.3964   3.4883   3.4883   3.4958
     3.6061   3.6651   3.6651   3.6827   3.6881   3.6881   3.7391   3.7391
     3.7643   3.8799   3.8800   3.9655   4.0481   4.3311   4.3312   4.4752
     4.4752   4.5760   4.7788   4.8220   4.8519   4.8519   4.9878   4.9878
     5.0623   5.0623   5.1472   5.2465   5.2465   6.1427

          k = 0.3750 0.3750-0.3750 ( 37779 PWs)   bands (ev):

    -5.5421  -5.2992  -5.2992  -5.2312  -5.0449  -5.0449  -4.9291  -4.6899
    -3.8022  -3.8022  -3.7568  -3.6352  -3.6319  -3.6319  -3.6061  -3.6061
    -3.5819  -3.4936  -3.4936  -3.2775  -3.0948  -3.0948  -3.0924  -3.0557
    -3.0557  -3.0091  -3.0048  -3.0048  -2.9836  -2.9260  -2.9259  -1.8661
    -0.9019  -0.9019  -0.8098  -0.7861  -0.7860  -0.7858  -0.7479  -0.7479
    -0.6875  -0.6366  -0.6349  -0.6349  -0.5389  -0.5389  -0.3179  -0.2553
    -0.2545  -0.2544  -0.1253  -0.1253   0.1453   0.1587   0.1588   0.8735
     1.3426   1.6050   1.6050   1.8930   2.0230   2.0336   2.0336   2.0595
     2.0595   2.0723   2.1424   2.1424   2.1503   2.2429   2.2430   2.3561
     2.3563   2.3563   2.5466   2.6174   2.6349   2.6349   2.7020   2.7021
     2.7300   2.8376   2.8376   2.9272   2.9287   2.9287   3.0603   3.3738
     3.3787   3.3787   3.3907   3.3963   3.3963   3.4883   3.4883   3.4958
     3.6061   3.6651   3.6651   3.6827   3.6881   3.6881   3.7392   3.7392
     3.7643   3.8800   3.8800   3.9654   4.0481   4.3311   4.3311   4.4752
     4.4752   4.5759   4.7788   4.8220   4.8519   4.8519   4.9878   4.9878
     5.0623   5.0623   5.1472   5.2465   5.2465   6.1427

          k = 0.3750 0.3750-0.1250 ( 37741 PWs)   bands (ev):

    -5.6685  -5.4252  -5.3675  -5.1228  -4.8884  -4.6756  -4.6097  -4.4159
    -4.3661  -4.1965  -4.1358  -3.9613  -3.8932  -3.8265  -3.6739  -3.6276
    -3.4410  -3.4215  -3.3898  -3.2695  -3.1898  -3.1501  -3.1407  -3.0500
    -2.9933  -2.9541  -2.8952  -2.7389  -2.5380  -2.4270  -2.3642  -1.8392
    -1.3443  -1.2639  -1.1526  -0.9756  -0.9142  -0.9066  -0.8660  -0.8214
    -0.8018  -0.7237  -0.6531  -0.6154  -0.5882  -0.4943  -0.4645  -0.2646
    -0.0107   0.1168   0.1911   0.3170   0.3388   0.4363   0.4372   0.7723
     0.9400   0.9514   1.5083   1.6041   1.7136   1.7419   1.9479   2.0022
     2.0432   2.0940   2.1650   2.2367   2.2648   2.2756   2.3963   2.4226
     2.5048   2.5158   2.6091   2.6194   2.7596   2.8720   2.9160   2.9468
     2.9799   3.0088   3.0438   3.0588   3.1206   3.1471   3.2448   3.2498
     3.2748   3.2931   3.3330   3.3767   3.3773   3.4374   3.4614   3.5035
     3.5382   3.5928   3.7170   3.7254   3.7584   3.7828   3.7836   3.8370
     3.8641   3.9118   3.9627   4.0113   4.0798   4.1226   4.1790   4.1804
     4.2759   4.3052   4.3611   4.4219   4.4900   4.6240   4.7223   4.7933
     4.8678   5.0775   5.0804   5.2333   5.4790   5.8804

          k = 0.3750-0.3750 0.1250 ( 37741 PWs)   bands (ev):

    -5.6685  -5.4252  -5.3675  -5.1228  -4.8884  -4.6756  -4.6097  -4.4159
    -4.3661  -4.1965  -4.1358  -3.9613  -3.8932  -3.8265  -3.6738  -3.6276
    -3.4410  -3.4215  -3.3898  -3.2695  -3.1898  -3.1502  -3.1406  -3.0500
    -2.9933  -2.9542  -2.8952  -2.7389  -2.5379  -2.4270  -2.3642  -1.8393
    -1.3442  -1.2639  -1.1526  -0.9756  -0.9141  -0.9067  -0.8660  -0.8214
    -0.8018  -0.7237  -0.6531  -0.6154  -0.5882  -0.4943  -0.4644  -0.2646
    -0.0107   0.1169   0.1911   0.3170   0.3388   0.4363   0.4372   0.7723
     0.9400   0.9514   1.5083   1.6041   1.7136   1.7419   1.9479   2.0022
     2.0432   2.0940   2.1650   2.2367   2.2648   2.2756   2.3963   2.4226
     2.5048   2.5159   2.6090   2.6194   2.7596   2.8719   2.9160   2.9468
     2.9798   3.0088   3.0438   3.0588   3.1207   3.1470   3.2448   3.2498
     3.2748   3.2931   3.3330   3.3767   3.3773   3.4374   3.4614   3.5035
     3.5382   3.5928   3.7170   3.7254   3.7584   3.7828   3.7835   3.8370
     3.8641   3.9118   3.9626   4.0113   4.0798   4.1227   4.1790   4.1804
     4.2759   4.3052   4.3611   4.4219   4.4900   4.6240   4.7223   4.7933
     4.8678   5.0775   5.0804   5.2333   5.4790   5.8804

          k = 0.3750-0.3750 0.3750 ( 37779 PWs)   bands (ev):

    -5.5421  -5.2992  -5.2992  -5.2312  -5.0449  -5.0449  -4.9291  -4.6899
    -3.8023  -3.8022  -3.7568  -3.6352  -3.6319  -3.6319  -3.6061  -3.6060
    -3.5820  -3.4936  -3.4936  -3.2775  -3.0948  -3.0947  -3.0925  -3.0557
    -3.0557  -3.0091  -3.0048  -3.0048  -2.9836  -2.9260  -2.9259  -1.8662
    -0.9019  -0.9019  -0.8098  -0.7861  -0.7861  -0.7858  -0.7479  -0.7479
    -0.6876  -0.6367  -0.6349  -0.6348  -0.5389  -0.5388  -0.3180  -0.2552
    -0.2545  -0.2544  -0.1253  -0.1253   0.1453   0.1587   0.1588   0.8735
     1.3426   1.6050   1.6050   1.8931   2.0230   2.0336   2.0336   2.0595
     2.0595   2.0723   2.1424   2.1424   2.1503   2.2430   2.2430   2.3561
     2.3563   2.3563   2.5466   2.6174   2.6349   2.6350   2.7020   2.7021
     2.7300   2.8376   2.8376   2.9273   2.9287   2.9287   3.0603   3.3739
     3.3786   3.3787   3.3907   3.3963   3.3964   3.4883   3.4883   3.4958
     3.6061   3.6651   3.6651   3.6827   3.6881   3.6881   3.7391   3.7391
     3.7643   3.8799   3.8800   3.9655   4.0481   4.3311   4.3312   4.4752
     4.4752   4.5760   4.7788   4.8220   4.8519   4.8519   4.9878   4.9878
     5.0623   5.0623   5.1472   5.2465   5.2465   6.1427

          k = 0.3750-0.3750-0.3750 ( 37779 PWs)   bands (ev):

    -5.5421  -5.2992  -5.2992  -5.2312  -5.0449  -5.0449  -4.9291  -4.6899
    -3.8023  -3.8022  -3.7568  -3.6351  -3.6319  -3.6319  -3.6061  -3.6060
    -3.5820  -3.4936  -3.4936  -3.2775  -3.0948  -3.0947  -3.0925  -3.0557
    -3.0557  -3.0091  -3.0048  -3.0048  -2.9836  -2.9260  -2.9259  -1.8662
    -0.9019  -0.9019  -0.8098  -0.7861  -0.7861  -0.7858  -0.7479  -0.7479
    -0.6876  -0.6367  -0.6349  -0.6348  -0.5389  -0.5388  -0.3180  -0.2552
    -0.2545  -0.2545  -0.1253  -0.1253   0.1453   0.1588   0.1588   0.8735
     1.3426   1.6050   1.6050   1.8931   2.0230   2.0336   2.0336   2.0595
     2.0595   2.0723   2.1424   2.1424   2.1503   2.2430   2.2430   2.3561
     2.3563   2.3563   2.5466   2.6174   2.6349   2.6350   2.7020   2.7020
     2.7300   2.8376   2.8376   2.9273   2.9287   2.9287   3.0603   3.3739
     3.3786   3.3787   3.3907   3.3963   3.3963   3.4883   3.4883   3.4958
     3.6061   3.6651   3.6651   3.6827   3.6881   3.6881   3.7391   3.7391
     3.7643   3.8799   3.8800   3.9655   4.0481   4.3311   4.3312   4.4752
     4.4752   4.5760   4.7788   4.8220   4.8519   4.8519   4.9878   4.9878
     5.0623   5.0623   5.1472   5.2465   5.2465   6.1427

          k = 0.3750-0.3750-0.1250 ( 37741 PWs)   bands (ev):

    -5.6685  -5.4252  -5.3675  -5.1228  -4.8884  -4.6756  -4.6097  -4.4159
    -4.3661  -4.1965  -4.1358  -3.9613  -3.8932  -3.8265  -3.6738  -3.6276
    -3.4410  -3.4215  -3.3898  -3.2695  -3.1898  -3.1502  -3.1406  -3.0500
    -2.9933  -2.9542  -2.8952  -2.7389  -2.5379  -2.4270  -2.3643  -1.8393
    -1.3442  -1.2639  -1.1526  -0.9756  -0.9141  -0.9067  -0.8660  -0.8214
    -0.8018  -0.7237  -0.6531  -0.6154  -0.5882  -0.4943  -0.4644  -0.2646
    -0.0107   0.1169   0.1911   0.3170   0.3388   0.4363   0.4372   0.7723
     0.9400   0.9514   1.5083   1.6041   1.7136   1.7419   1.9479   2.0022
     2.0432   2.0940   2.1650   2.2367   2.2648   2.2756   2.3963   2.4226
     2.5048   2.5159   2.6090   2.6194   2.7596   2.8719   2.9160   2.9468
     2.9798   3.0088   3.0438   3.0588   3.1207   3.1470   3.2448   3.2498
     3.2748   3.2931   3.3330   3.3767   3.3773   3.4374   3.4614   3.5035
     3.5382   3.5928   3.7170   3.7254   3.7584   3.7828   3.7835   3.8370
     3.8641   3.9118   3.9626   4.0113   4.0798   4.1227   4.1790   4.1804
     4.2759   4.3052   4.3611   4.4219   4.4900   4.6240   4.7223   4.7933
     4.8678   5.0775   5.0804   5.2333   5.4790   5.8804

          k = 0.3750-0.1250 0.1250 ( 37741 PWs)   bands (ev):

    -5.7959  -5.5189  -5.0354  -4.9862  -4.7869  -4.7149  -4.5212  -4.4722
    -4.3106  -4.2901  -4.2146  -4.0912  -3.9678  -3.8858  -3.8684  -3.7692
    -3.6705  -3.5675  -3.4644  -3.4046  -3.2696  -3.1739  -3.0694  -2.8819
    -2.7947  -2.6844  -2.5895  -2.4331  -2.3295  -2.3154  -2.2280  -1.8018
    -1.4452  -1.4368  -1.3674  -1.2101  -1.0741  -0.9999  -0.8507  -0.8477
    -0.7684  -0.6978  -0.6614  -0.6357  -0.6107  -0.4866  -0.3449  -0.2879
    -0.2528  -0.1673  -0.1422   0.2665   0.5019   0.7774   0.8029   1.1318
     1.3060   1.4782   1.5215   1.6623   1.6680   1.7297   1.7661   1.8793
     1.8923   1.9731   1.9944   2.0534   2.0890   2.1406   2.2062   2.4500
     2.4524   2.5869   2.6625   2.6845   2.7731   2.8046   2.8828   2.8984
     2.9230   2.9381   2.9753   2.9914   3.0810   3.0923   3.1000   3.2080
     3.2100   3.2621   3.3003   3.3445   3.3505   3.4049   3.4957   3.5178
     3.5857   3.6278   3.6657   3.7213   3.7505   3.7732   3.8421   3.8878
     3.9292   3.9962   4.0651   4.1852   4.2245   4.3119   4.3494   4.3591
     4.3809   4.4293   4.4363   4.5085   4.6105   4.6889   4.7446   4.7683
     4.7761   4.8533   5.0093   5.2093   5.3077   5.9056

          k = 0.3750-0.1250 0.3750 ( 37741 PWs)   bands (ev):

    -5.6685  -5.4252  -5.3675  -5.1228  -4.8884  -4.6756  -4.6097  -4.4159
    -4.3661  -4.1965  -4.1358  -3.9613  -3.8932  -3.8265  -3.6738  -3.6276
    -3.4410  -3.4215  -3.3898  -3.2695  -3.1898  -3.1502  -3.1406  -3.0500
    -2.9933  -2.9542  -2.8952  -2.7389  -2.5380  -2.4270  -2.3642  -1.8393
    -1.3443  -1.2639  -1.1526  -0.9756  -0.9141  -0.9067  -0.8660  -0.8214
    -0.8018  -0.7237  -0.6531  -0.6154  -0.5882  -0.4943  -0.4644  -0.2646
    -0.0107   0.1169   0.1910   0.3170   0.3388   0.4363   0.4372   0.7723
     0.9400   0.9514   1.5083   1.6041   1.7136   1.7419   1.9479   2.0022
     2.0432   2.0940   2.1650   2.2367   2.2648   2.2756   2.3963   2.4226
     2.5048   2.5159   2.6090   2.6194   2.7596   2.8719   2.9160   2.9468
     2.9798   3.0088   3.0438   3.0588   3.1207   3.1470   3.2448   3.2498
     3.2748   3.2931   3.3330   3.3767   3.3773   3.4374   3.4614   3.5035
     3.5382   3.5928   3.7169   3.7254   3.7584   3.7828   3.7835   3.8370
     3.8641   3.9118   3.9626   4.0113   4.0798   4.1227   4.1790   4.1804
     4.2759   4.3052   4.3611   4.4219   4.4900   4.6240   4.7223   4.7933
     4.8678   5.0775   5.0804   5.2333   5.4790   5.8804

          k = 0.3750-0.1250-0.3750 ( 37741 PWs)   bands (ev):

    -5.6685  -5.4252  -5.3675  -5.1228  -4.8884  -4.6756  -4.6098  -4.4159
    -4.3661  -4.1965  -4.1358  -3.9613  -3.8932  -3.8265  -3.6739  -3.6276
    -3.4410  -3.4215  -3.3898  -3.2695  -3.1898  -3.1501  -3.1407  -3.0500
    -2.9933  -2.9542  -2.8952  -2.7389  -2.5379  -2.4270  -2.3643  -1.8393
    -1.3443  -1.2639  -1.1525  -0.9756  -0.9142  -0.9066  -0.8660  -0.8214
    -0.8017  -0.7237  -0.6531  -0.6154  -0.5882  -0.4943  -0.4645  -0.2646
    -0.0107   0.1168   0.1911   0.3170   0.3388   0.4363   0.4372   0.7723
     0.9399   0.9514   1.5083   1.6041   1.7136   1.7419   1.9479   2.0022
     2.0432   2.0940   2.1651   2.2367   2.2648   2.2756   2.3963   2.4226
     2.5048   2.5158   2.6091   2.6194   2.7596   2.8720   2.9160   2.9468
     2.9799   3.0088   3.0438   3.0588   3.1207   3.1471   3.2448   3.2498
     3.2748   3.2931   3.3330   3.3767   3.3773   3.4374   3.4614   3.5035
     3.5381   3.5928   3.7170   3.7254   3.7584   3.7828   3.7836   3.8370
     3.8641   3.9118   3.9626   4.0113   4.0798   4.1226   4.1790   4.1804
     4.2759   4.3052   4.3611   4.4220   4.4900   4.6240   4.7223   4.7934
     4.8678   5.0775   5.0803   5.2333   5.4790   5.8804

          k = 0.3750-0.1250-0.1250 ( 37741 PWs)   bands (ev):

    -5.7959  -5.5189  -5.0354  -4.9862  -4.7869  -4.7149  -4.5212  -4.4722
    -4.3106  -4.2901  -4.2146  -4.0912  -3.9678  -3.8858  -3.8685  -3.7692
    -3.6705  -3.5675  -3.4644  -3.4046  -3.2696  -3.1739  -3.0694  -2.8819
    -2.7947  -2.6844  -2.5895  -2.4331  -2.3294  -2.3154  -2.2280  -1.8019
    -1.4452  -1.4368  -1.3674  -1.2101  -1.0741  -0.9999  -0.8507  -0.8477
    -0.7684  -0.6978  -0.6615  -0.6357  -0.6107  -0.4866  -0.3449  -0.2879
    -0.2528  -0.1673  -0.1422   0.2665   0.5019   0.7774   0.8029   1.1318
     1.3060   1.4782   1.5215   1.6623   1.6680   1.7297   1.7661   1.8793
     1.8923   1.9731   1.9944   2.0534   2.0890   2.1405   2.2062   2.4500
     2.4523   2.5869   2.6625   2.6845   2.7731   2.8046   2.8828   2.8984
     2.9230   2.9381   2.9753   2.9914   3.0810   3.0923   3.1000   3.2080
     3.2100   3.2621   3.3003   3.3445   3.3505   3.4049   3.4957   3.5178
     3.5857   3.6278   3.6657   3.7213   3.7505   3.7732   3.8421   3.8878
     3.9291   3.9962   4.0651   4.1852   4.2245   4.3120   4.3494   4.3590
     4.3810   4.4293   4.4362   4.5086   4.6106   4.6889   4.7446   4.7683
     4.7761   4.8533   5.0093   5.2093   5.3077   5.9056

     highest occupied level (ev):     6.1608

!    total energy              =    -719.18745873 Ry
     Harris-Foulkes estimate   =    -719.18745874 Ry
     estimated scf accuracy    <          8.7E-09 Ry

     The total energy is the sum of the following terms:

     one-electron contribution =     148.08188665 Ry
     hartree contribution      =      38.33577414 Ry
     xc contribution           =    -386.39434443 Ry
     ewald contribution        =    -519.21077509 Ry

     convergence has been achieved in  15 iterations

     Forces acting on atoms (cartesian axes, Ry/au):

     atom    1 type  1   force =    -0.00046113   -0.00045918    0.00045957
     atom    2 type  1   force =     0.00377942   -0.00112508    0.00112435
     atom    3 type  1   force =    -0.00112570    0.00377761    0.00112518
     atom    4 type  1   force =     0.00016108    0.00015982    0.00021848
     atom    5 type  1   force =    -0.00016028   -0.00015877    0.00021804
     atom    6 type  1   force =     0.00112439   -0.00377630    0.00112546
     atom    7 type  1   force =    -0.00377731    0.00112300    0.00112327
     atom    8 type  1   force =     0.00045971    0.00045902    0.00045972
     atom    9 type  1   force =     0.00152338    0.00152603    0.00131367
     atom   10 type  1   force =    -0.00136272    0.00152588   -0.00115214
     atom   11 type  1   force =     0.00152408   -0.00136540   -0.00115324
     atom   12 type  1   force =    -0.00136365   -0.00136551    0.00131422
     atom   13 type  1   force =    -0.00008034   -0.00008029    0.00008027
     atom   14 type  1   force =    -0.00007673   -0.00009487    0.00007520
     atom   15 type  1   force =    -0.00009375   -0.00007637    0.00007508
     atom   16 type  1   force =    -0.00008217   -0.00008133    0.00008016
     atom   17 type  1   force =    -0.00377799   -0.00112369   -0.00112323
     atom   18 type  1   force =     0.00045964   -0.00045937   -0.00046090
     atom   19 type  1   force =    -0.00015921    0.00015811   -0.00021683
     atom   20 type  1   force =     0.00112343    0.00377825   -0.00112533
     atom   21 type  1   force =     0.00016034   -0.00015804   -0.00021599
     atom   22 type  1   force =    -0.00112521   -0.00377688   -0.00112500
     atom   23 type  1   force =     0.00378060    0.00112325   -0.00112432
     atom   24 type  1   force =    -0.00046142    0.00045883   -0.00046135
     atom   25 type  1   force =     0.00091427    0.00665089    0.00650313
     atom   26 type  1   force =     0.00115126    0.00152623    0.00136238
     atom   27 type  1   force =    -0.00109080   -0.00650459    0.00650397
     atom   28 type  1   force =    -0.00131620   -0.00136540    0.00136278
     atom   29 type  1   force =    -0.00650360   -0.00109154    0.00650207
     atom   30 type  1   force =     0.00664999    0.00091355    0.00650217
     atom   31 type  1   force =    -0.00136420   -0.00131546    0.00136401
     atom   32 type  1   force =     0.00152537    0.00115298    0.00136423
     atom   33 type  1   force =    -0.00112429   -0.00112457   -0.00377912
     atom   34 type  1   force =     0.00015992   -0.00021818   -0.00015917
     atom   35 type  1   force =    -0.00021877    0.00015852   -0.00015954
     atom   36 type  1   force =     0.00355179    0.00355201    0.00354036
     atom   37 type  1   force =     0.00021542   -0.00015894   -0.00016049
     atom   38 type  1   force =    -0.00015838    0.00021573   -0.00015797
     atom   39 type  1   force =     0.00112264    0.00112373   -0.00377946
     atom   40 type  1   force =     0.00665128    0.00665119    0.00109512
     atom   41 type  1   force =    -0.00650373    0.00665040   -0.00091330
     atom   42 type  1   force =     0.00665101   -0.00650334   -0.00091249
     atom   43 type  1   force =    -0.00650429   -0.00650343    0.00109323
     atom   44 type  1   force =    -0.00353418   -0.00353475    0.00353366
     atom   45 type  1   force =    -0.00007982   -0.00008045    0.00008114
     atom   46 type  1   force =    -0.00008049   -0.00008069    0.00008123
     atom   47 type  1   force =    -0.00007676   -0.00007613    0.00009651
     atom   48 type  1   force =    -0.00015934   -0.00021800    0.00015995
     atom   49 type  1   force =     0.00112327   -0.00112497    0.00377868
     atom   50 type  1   force =     0.00355198   -0.00354126   -0.00355123
     atom   51 type  1   force =     0.00021529    0.00015992    0.00016147
     atom   52 type  1   force =    -0.00354101    0.00355199   -0.00355119
     atom   53 type  1   force =    -0.00021795   -0.00015908    0.00016115
     atom   54 type  1   force =     0.00015983    0.00021506    0.00016003
     atom   55 type  1   force =    -0.00112440    0.00112364    0.00377890
     atom   56 type  1   force =    -0.00109336    0.00665142   -0.00665126
     atom   57 type  1   force =    -0.00131375    0.00152490   -0.00152300
     atom   58 type  1   force =     0.00091433   -0.00650301   -0.00665035
     atom   59 type  1   force =     0.00115084   -0.00136460   -0.00152371
     atom   60 type  1   force =    -0.00650243    0.00091438   -0.00664890
     atom   61 type  1   force =     0.00665010   -0.00109367   -0.00664999
     atom   62 type  1   force =    -0.00136362    0.00115141   -0.00152480
     atom   63 type  1   force =     0.00152437   -0.00131462   -0.00152458

     Total force =     0.038409     Total SCF correction =     0.000180

     BFGS Geometry Optimization

     number of scf cycles    =   1
     number of bfgs steps    =   0

     energy   new            =    -719.1874587338 Ry

     new trust radius        =       0.0094697959 bohr
     new conv_thr            =       0.0000000100 Ry


ATOMIC_POSITIONS (alat)
Si      -0.000022308  -0.000022213   0.000022232
Si       0.500182834  -0.000054427   0.000054392
Si      -0.000054457   0.500182746   0.000054432
Si       0.500007792   0.500007731   0.000010569
Si       0.249992246   0.249992319   0.000010548
Si       0.750054393   0.249817318   0.000054445
Si       0.249817269   0.750054326   0.000054339
Si       0.750022239   0.750022206   0.000022240
Si       0.125073695   0.125073823   0.125063550
Si       0.624934077   0.125073816   0.124944264
Si       0.125073729   0.624933947   0.124944211
Si       0.624934032   0.624933942   0.125063577
Si       0.374996113   0.374996116   0.125003883
Si       0.874996288   0.374995411   0.125003638
Si       0.374995465   0.874996306   0.125003632
Si       0.874996025   0.874996066   0.125003878
Si       0.249817236  -0.000054359   0.249945662
Si       0.750022235  -0.000022222   0.249977703
Si       0.249992298   0.500007649   0.249989511
Si       0.750054347   0.500182777   0.249945561
Si       0.500007757   0.249992355   0.249989551
Si      -0.000054433   0.249817289   0.249945577
Si       0.500182890   0.750054339   0.249945610
Si      -0.000022322   0.750022196   0.249977682
Si       0.375044229   0.125321744   0.375314596
Si       0.875055693   0.125073833   0.375065907
Si       0.374947231   0.624685334   0.375314637
Si       0.874936327   0.624933947   0.375065926
Si       0.624685381   0.374947196   0.375314545
Si       0.125321700   0.375044194   0.375314549
Si       0.624934006   0.874936363   0.375065986
Si       0.125073791   0.875055777   0.375065996
Si      -0.000054389  -0.000054402   0.499817181
Si       0.500007736  -0.000010554   0.499992300
Si      -0.000010583   0.500007669   0.499992282
Si       0.250171822   0.250171832   0.500171269
Si       0.750010421   0.249992311   0.499992236
Si       0.249992338   0.750010436   0.499992358
Si       0.750054309   0.750054361   0.499817165
Si       0.125321762   0.125321758   0.625052978
Si       0.624685375   0.125321720   0.624955818
Si       0.125321749   0.624685394   0.624955858
Si       0.624685348   0.624685390   0.625052886
Si       0.499829030   0.499829003   0.500170945
Si       0.874996139   0.374996108   0.625003925
Si       0.374996106   0.874996097   0.625003930
Si       0.874996287   0.874996317   0.625004669
Si       0.249992292  -0.000010546   0.750007738
Si       0.750054339  -0.000054422   0.750182798
Si       0.250171831   0.499828688   0.749828206
Si       0.750010415   0.500007736   0.750007811
Si       0.499828700   0.250171831   0.749828207
Si      -0.000010544   0.249992305   0.750007796
Si       0.500007732   0.750010404   0.750007742
Si      -0.000054394   0.750054357   0.750182808
Si       0.374947108   0.125321769   0.874678238
Si       0.874936446   0.125073769   0.874926323
Si       0.375044232   0.624685410   0.874678282
Si       0.875055673   0.624933986   0.874926289
Si       0.624685438   0.375044234   0.874678353
Si       0.125321706   0.374947093   0.874678300
Si       0.624934034   0.875055701   0.874926236
Si       0.125073743   0.874936404   0.874926247



     Writing output data file si.save
     NEW-OLD atomic charge density approx. for the potential

     Check: negative/imaginary core charge=   -0.000003    0.000000

     total cpu time spent up to now is     2085.6 secs

     per-process dynamical memory:   332.4 Mb

     Self-consistent Calculation

     iteration #  1     ecut=    40.00 Ry     beta=0.70
     Davidson diagonalization with overlap
     ethr =  1.00E-06,  avg # of iterations =  4.0

     Threshold (ethr) on eigenvalues was too large:
     Diagonalizing with lowered threshold

     Davidson diagonalization with overlap
     ethr =  2.30E-08,  avg # of iterations =  4.8

     total cpu time spent up to now is     2354.3 secs

     total energy              =    -719.18869090 Ry
     Harris-Foulkes estimate   =    -719.18873634 Ry
     estimated scf accuracy    <       0.00007532 Ry

     iteration #  2     ecut=    40.00 Ry     beta=0.70
     Davidson diagonalization with overlap
     ethr =  2.99E-08,  avg # of iterations =  5.1

     total cpu time spent up to now is     2511.4 secs

     total energy              =    -719.18865304 Ry
     Harris-Foulkes estimate   =    -719.18878395 Ry
     estimated scf accuracy    <       0.00039815 Ry

     iteration #  3     ecut=    40.00 Ry     beta=0.70
     Davidson diagonalization with overlap
     ethr =  2.99E-08,  avg # of iterations =  5.2

     total cpu time spent up to now is     2656.4 secs

     total energy              =    -719.18871451 Ry
     Harris-Foulkes estimate   =    -719.18873046 Ry
     estimated scf accuracy    <       0.00005060 Ry

     iteration #  4     ecut=    40.00 Ry     beta=0.70
     Davidson diagonalization with overlap
     ethr =  2.01E-08,  avg # of iterations =  3.2

     total cpu time spent up to now is     2767.6 secs

     total energy              =    -719.18872115 Ry
     Harris-Foulkes estimate   =    -719.18872566 Ry
     estimated scf accuracy    <       0.00001269 Ry

     iteration #  5     ecut=    40.00 Ry     beta=0.70
     Davidson diagonalization with overlap
     ethr =  5.04E-09,  avg # of iterations =  3.1

     total cpu time spent up to now is     2883.6 secs

     total energy              =    -719.18872370 Ry
     Harris-Foulkes estimate   =    -719.18872396 Ry
     estimated scf accuracy    <       0.00000056 Ry

     iteration #  6     ecut=    40.00 Ry     beta=0.70
     Davidson diagonalization with overlap
     ethr =  2.24E-10,  avg # of iterations =  5.0

     total cpu time spent up to now is     3027.2 secs

     total energy              =    -719.18872387 Ry
     Harris-Foulkes estimate   =    -719.18872397 Ry
     estimated scf accuracy    <       0.00000027 Ry

     iteration #  7     ecut=    40.00 Ry     beta=0.70
     Davidson diagonalization with overlap
     ethr =  1.08E-10,  avg # of iterations =  6.3

     total cpu time spent up to now is     3150.7 secs

     total energy              =    -719.18872390 Ry
     Harris-Foulkes estimate   =    -719.18872394 Ry
     estimated scf accuracy    <       0.00000016 Ry

     iteration #  8     ecut=    40.00 Ry     beta=0.70
     Davidson diagonalization with overlap
     ethr =  6.27E-11,  avg # of iterations =  5.9

     total cpu time spent up to now is     3266.2 secs

     total energy              =    -719.18872391 Ry
     Harris-Foulkes estimate   =    -719.18872392 Ry
     estimated scf accuracy    <       0.00000001 Ry

     iteration #  9     ecut=    40.00 Ry     beta=0.70
     Davidson diagonalization with overlap
     ethr =  5.43E-12,  avg # of iterations =  6.1

     total cpu time spent up to now is     3414.3 secs

     total energy              =    -719.18872392 Ry
     Harris-Foulkes estimate   =    -719.18872392 Ry
     estimated scf accuracy    <       0.00000002 Ry

     iteration # 10     ecut=    40.00 Ry     beta=0.70
     Davidson diagonalization with overlap
     ethr =  5.43E-12,  avg # of iterations =  5.6

     total cpu time spent up to now is     3530.7 secs

     End of self-consistent calculation

          k = 0.1250 0.1250 0.1250 ( 37743 PWs)   bands (ev):

    -5.9221  -5.1567  -5.1567  -5.0712  -4.6352  -4.6351  -4.5585  -4.4246
    -4.4245  -4.3180  -3.9663  -3.9661  -3.9659  -3.9290  -3.9289  -3.9165
    -3.8281  -3.6916  -3.6913  -3.5903  -3.5365  -3.5364  -3.0169  -2.3788
    -2.3786  -2.3566  -2.2031  -2.2030  -2.2026  -2.1494  -2.1493  -1.7231
    -1.4592  -1.4548  -1.4546  -1.4099  -1.4086  -1.4085  -1.3272  -1.3271
    -1.0571  -0.9374  -0.9373  -0.7631  -0.4073  -0.2306  -0.2306   0.0503
     0.2552   0.2585   0.2586   0.3531   0.3531   0.7520   0.8976   0.8976
     1.4128   1.6489   1.6489   1.8412   1.8521   1.8521   1.8634   1.8874
     1.8875   1.9695   1.9793   1.9794   2.2388   2.2731   2.2912   2.2912
     2.3384   2.3384   2.4230   2.4366   2.4366   2.4468   2.5237   2.5610
     2.5610   2.6967   2.6967   2.7572   2.7675   2.7676   2.8907   2.8908
     3.0602   3.1041   3.2266   3.2267   3.6734   3.6734   3.7006   3.7644
     3.8693   3.8693   4.0552   4.1921   4.1921   4.2053   4.2194   4.2216
     4.2216   4.2599   4.2683   4.2686   4.2954   4.2955   4.3076   4.3314
     4.3315   4.4225   4.4227   4.5326   4.6169   4.6170   4.6204   4.7410
     4.7410   4.8018   5.1393   5.4938   5.4938   6.1645

          k = 0.1250 0.1250 0.3750 ( 37741 PWs)   bands (ev):

    -5.7944  -5.5176  -5.0333  -4.9858  -4.7852  -4.7142  -4.5190  -4.4718
    -4.3106  -4.2882  -4.2132  -4.0906  -3.9673  -3.8836  -3.8683  -3.7699
    -3.6688  -3.5664  -3.4657  -3.4032  -3.2700  -3.1730  -3.0676  -2.8861
    -2.7938  -2.6845  -2.5876  -2.4345  -2.3276  -2.3148  -2.2291  -1.8062
    -1.4439  -1.4359  -1.3679  -1.2094  -1.0747  -1.0006  -0.8511  -0.8471
    -0.7689  -0.6984  -0.6602  -0.6356  -0.6096  -0.4851  -0.3429  -0.2881
    -0.2522  -0.1668  -0.1399   0.2674   0.5046   0.7778   0.8028   1.1331
     1.3052   1.4793   1.5211   1.6638   1.6664   1.7304   1.7672   1.8804
     1.8930   1.9745   1.9962   2.0524   2.0884   2.1409   2.2065   2.4499
     2.4527   2.5873   2.6632   2.6865   2.7731   2.8050   2.8843   2.8993
     2.9222   2.9390   2.9754   2.9936   3.0824   3.0913   3.1012   3.2093
     3.2116   3.2628   3.2996   3.3437   3.3524   3.4031   3.4973   3.5175
     3.5831   3.6286   3.6656   3.7226   3.7503   3.7723   3.8410   3.8906
     3.9298   3.9950   4.0660   4.1844   4.2257   4.3135   4.3478   4.3623
     4.3799   4.4269   4.4340   4.5098   4.6099   4.6892   4.7448   4.7647
     4.7750   4.8520   5.0104   5.2066   5.3054   5.9079

          k = 0.1250 0.1250-0.3750 ( 37741 PWs)   bands (ev):

    -5.7944  -5.5176  -5.0333  -4.9858  -4.7852  -4.7142  -4.5190  -4.4718
    -4.3106  -4.2882  -4.2132  -4.0906  -3.9673  -3.8836  -3.8682  -3.7699
    -3.6689  -3.5664  -3.4657  -3.4032  -3.2699  -3.1729  -3.0676  -2.8861
    -2.7938  -2.6846  -2.5876  -2.4345  -2.3276  -2.3147  -2.2291  -1.8062
    -1.4439  -1.4359  -1.3679  -1.2094  -1.0747  -1.0006  -0.8512  -0.8471
    -0.7689  -0.6984  -0.6602  -0.6356  -0.6096  -0.4851  -0.3429  -0.2881
    -0.2522  -0.1668  -0.1400   0.2675   0.5046   0.7778   0.8028   1.1331
     1.3052   1.4792   1.5211   1.6638   1.6665   1.7305   1.7672   1.8805
     1.8930   1.9744   1.9962   2.0524   2.0884   2.1409   2.2064   2.4499
     2.4527   2.5873   2.6632   2.6865   2.7731   2.8050   2.8843   2.8993
     2.9221   2.9390   2.9756   2.9936   3.0824   3.0912   3.1012   3.2093
     3.2116   3.2628   3.2996   3.3436   3.3524   3.4031   3.4972   3.5175
     3.5831   3.6286   3.6656   3.7226   3.7503   3.7723   3.8411   3.8906
     3.9297   3.9949   4.0659   4.1844   4.2258   4.3135   4.3478   4.3623
     4.3799   4.4270   4.4340   4.5098   4.6100   4.6892   4.7448   4.7647
     4.7750   4.8520   5.0104   5.2066   5.3053   5.9080

          k = 0.1250 0.1250-0.1250 ( 37743 PWs)   bands (ev):

    -5.9221  -5.1567  -5.1567  -5.0712  -4.6351  -4.6351  -4.5585  -4.4246
    -4.4245  -4.3180  -3.9664  -3.9659  -3.9659  -3.9291  -3.9291  -3.9166
    -3.8278  -3.6917  -3.6916  -3.5901  -3.5365  -3.5364  -3.0168  -2.3788
    -2.3788  -2.3563  -2.2030  -2.2030  -2.2027  -2.1494  -2.1494  -1.7229
    -1.4590  -1.4548  -1.4548  -1.4100  -1.4085  -1.4085  -1.3272  -1.3272
    -1.0572  -0.9373  -0.9373  -0.7632  -0.4073  -0.2306  -0.2306   0.0503
     0.2552   0.2586   0.2586   0.3531   0.3531   0.7521   0.8976   0.8976
     1.4127   1.6489   1.6489   1.8412   1.8521   1.8521   1.8635   1.8874
     1.8874   1.9695   1.9794   1.9794   2.2388   2.2731   2.2912   2.2912
     2.3384   2.3384   2.4230   2.4366   2.4366   2.4468   2.5237   2.5610
     2.5610   2.6967   2.6967   2.7572   2.7675   2.7675   2.8908   2.8909
     3.0600   3.1041   3.2266   3.2266   3.6734   3.6734   3.7007   3.7644
     3.8694   3.8694   4.0552   4.1921   4.1921   4.2053   4.2194   4.2216
     4.2216   4.2600   4.2684   4.2684   4.2955   4.2955   4.3074   4.3313
     4.3313   4.4226   4.4226   4.5324   4.6171   4.6171   4.6205   4.7410
     4.7410   4.8018   5.1393   5.4937   5.4938   6.1646

          k = 0.1250 0.3750 0.1250 ( 37741 PWs)   bands (ev):

    -5.7944  -5.5176  -5.0333  -4.9858  -4.7853  -4.7142  -4.5190  -4.4718
    -4.3106  -4.2882  -4.2132  -4.0907  -3.9674  -3.8834  -3.8685  -3.7696
    -3.6690  -3.5664  -3.4657  -3.4032  -3.2699  -3.1730  -3.0676  -2.8861
    -2.7938  -2.6845  -2.5876  -2.4345  -2.3275  -2.3149  -2.2289  -1.8064
    -1.4440  -1.4358  -1.3677  -1.2095  -1.0747  -1.0006  -0.8511  -0.8471
    -0.7689  -0.6984  -0.6602  -0.6356  -0.6096  -0.4851  -0.3429  -0.2881
    -0.2522  -0.1668  -0.1400   0.2674   0.5046   0.7778   0.8028   1.1331
     1.3052   1.4793   1.5211   1.6638   1.6664   1.7304   1.7672   1.8804
     1.8929   1.9745   1.9962   2.0524   2.0884   2.1409   2.2065   2.4500
     2.4527   2.5873   2.6633   2.6865   2.7731   2.8050   2.8843   2.8993
     2.9221   2.9391   2.9755   2.9937   3.0825   3.0912   3.1011   3.2093
     3.2115   3.2627   3.2996   3.3437   3.3525   3.4031   3.4973   3.5175
     3.5831   3.6286   3.6655   3.7227   3.7503   3.7723   3.8410   3.8907
     3.9297   3.9950   4.0659   4.1844   4.2257   4.3135   4.3477   4.3625
     4.3798   4.4269   4.4342   4.5097   4.6099   4.6892   4.7448   4.7647
     4.7750   4.8520   5.0104   5.2066   5.3053   5.9079

          k = 0.1250 0.3750 0.3750 ( 37741 PWs)   bands (ev):

    -5.6670  -5.4232  -5.3666  -5.1221  -4.8869  -4.6739  -4.6089  -4.4160
    -4.3647  -4.1950  -4.1348  -3.9617  -3.8909  -3.8257  -3.6720  -3.6289
    -3.4396  -3.4205  -3.3882  -3.2711  -3.1878  -3.1498  -3.1390  -3.0526
    -2.9909  -2.9551  -2.8960  -2.7366  -2.5381  -2.4280  -2.3654  -1.8441
    -1.3438  -1.2615  -1.1547  -0.9766  -0.9144  -0.9072  -0.8678  -0.8198
    -0.7995  -0.7217  -0.6542  -0.6150  -0.5857  -0.4932  -0.4647  -0.2634
    -0.0090   0.1173   0.1927   0.3177   0.3394   0.4354   0.4395   0.7728
     0.9413   0.9513   1.5086   1.6040   1.7129   1.7441   1.9488   2.0027
     2.0437   2.0944   2.1666   2.2354   2.2637   2.2763   2.3981   2.4235
     2.5057   2.5160   2.6104   2.6195   2.7582   2.8737   2.9172   2.9461
     2.9794   3.0095   3.0460   3.0580   3.1201   3.1480   3.2466   3.2508
     3.2779   3.2921   3.3340   3.3782   3.3785   3.4365   3.4613   3.5008
     3.5393   3.5935   3.7150   3.7270   3.7600   3.7830   3.7842   3.8373
     3.8630   3.9123   3.9650   4.0125   4.0764   4.1232   4.1773   4.1801
     4.2763   4.3052   4.3615   4.4221   4.4905   4.6228   4.7220   4.7906
     4.8675   5.0757   5.0775   5.2318   5.4771   5.8821

          k = 0.1250 0.3750-0.3750 ( 37741 PWs)   bands (ev):

    -5.6670  -5.4232  -5.3666  -5.1221  -4.8869  -4.6739  -4.6089  -4.4160
    -4.3647  -4.1950  -4.1347  -3.9617  -3.8908  -3.8256  -3.6722  -3.6288
    -3.4398  -3.4204  -3.3883  -3.2709  -3.1878  -3.1497  -3.1392  -3.0525
    -2.9909  -2.9549  -2.8962  -2.7366  -2.5381  -2.4280  -2.3654  -1.8440
    -1.3438  -1.2615  -1.1547  -0.9766  -0.9144  -0.9072  -0.8678  -0.8198
    -0.7995  -0.7217  -0.6542  -0.6150  -0.5857  -0.4932  -0.4648  -0.2634
    -0.0090   0.1173   0.1927   0.3177   0.3394   0.4354   0.4395   0.7729
     0.9413   0.9513   1.5086   1.6040   1.7129   1.7441   1.9488   2.0026
     2.0438   2.0945   2.1666   2.2355   2.2637   2.2764   2.3982   2.4236
     2.5057   2.5160   2.6104   2.6195   2.7583   2.8737   2.9172   2.9461
     2.9795   3.0093   3.0459   3.0582   3.1199   3.1481   3.2466   3.2508
     3.2779   3.2921   3.3341   3.3783   3.3785   3.4365   3.4611   3.5008
     3.5393   3.5936   3.7150   3.7270   3.7599   3.7830   3.7842   3.8373
     3.8630   3.9123   3.9649   4.0125   4.0763   4.1232   4.1773   4.1801
     4.2763   4.3053   4.3615   4.4221   4.4906   4.6227   4.7220   4.7906
     4.8675   5.0757   5.0775   5.2318   5.4771   5.8822

          k = 0.1250 0.3750-0.1250 ( 37741 PWs)   bands (ev):

    -5.7944  -5.5176  -5.0333  -4.9858  -4.7852  -4.7142  -4.5190  -4.4718
    -4.3106  -4.2882  -4.2132  -4.0906  -3.9673  -3.8836  -3.8682  -3.7699
    -3.6689  -3.5664  -3.4657  -3.4032  -3.2699  -3.1729  -3.0676  -2.8861
    -2.7938  -2.6846  -2.5876  -2.4345  -2.3276  -2.3147  -2.2291  -1.8061
    -1.4439  -1.4359  -1.3679  -1.2094  -1.0747  -1.0006  -0.8512  -0.8471
    -0.7689  -0.6984  -0.6602  -0.6356  -0.6096  -0.4851  -0.3429  -0.2881
    -0.2522  -0.1668  -0.1400   0.2675   0.5046   0.7778   0.8028   1.1331
     1.3052   1.4792   1.5211   1.6638   1.6665   1.7305   1.7672   1.8805
     1.8930   1.9744   1.9962   2.0524   2.0884   2.1409   2.2064   2.4499
     2.4527   2.5873   2.6632   2.6865   2.7731   2.8049   2.8843   2.8993
     2.9221   2.9390   2.9756   2.9936   3.0824   3.0912   3.1012   3.2093
     3.2116   3.2628   3.2996   3.3436   3.3524   3.4031   3.4972   3.5175
     3.5831   3.6286   3.6656   3.7226   3.7503   3.7723   3.8411   3.8906
     3.9297   3.9949   4.0659   4.1844   4.2258   4.3135   4.3478   4.3623
     4.3799   4.4270   4.4340   4.5098   4.6100   4.6892   4.7448   4.7647
     4.7750   4.8520   5.0104   5.2066   5.3053   5.9080

          k = 0.1250-0.3750 0.1250 ( 37741 PWs)   bands (ev):

    -5.7944  -5.5176  -5.0333  -4.9858  -4.7853  -4.7142  -4.5190  -4.4718
    -4.3106  -4.2882  -4.2132  -4.0907  -3.9674  -3.8834  -3.8685  -3.7696
    -3.6690  -3.5664  -3.4657  -3.4032  -3.2699  -3.1730  -3.0676  -2.8861
[...]
    -3.7593  -3.7592  -3.7372  -3.6023  -3.6021  -3.5875  -3.5728  -3.5726
    -3.5519  -3.4685  -3.4684  -3.2725  -3.0629  -3.0624  -3.0552  -3.0133
    -3.0133  -2.9771  -2.9746  -2.9744  -2.9638  -2.9059  -2.9055  -1.9798
    -0.8773  -0.8771  -0.8136  -0.7604  -0.7523  -0.7521  -0.7209  -0.7208
    -0.6540  -0.6090  -0.6088  -0.5978  -0.5249  -0.5246  -0.3118  -0.2281
    -0.2195  -0.2192  -0.1237  -0.1235   0.1516   0.1853   0.1855   0.8812
     1.2980   1.6270   1.6272   1.8665   2.0540   2.0541   2.0818   2.0820
     2.0821   2.0920   2.1624   2.1625   2.1819   2.2681   2.2682   2.3630
     2.3737   2.3740   2.5469   2.6564   2.6564   2.6674   2.7258   2.7258
     2.7461   2.8605   2.8609   2.9287   2.9291   2.9490   3.0491   3.3865
     3.3887   3.3890   3.4279   3.4282   3.4516   3.5138   3.5397   3.5398
     3.6265   3.6797   3.6798   3.7189   3.7192   3.7246   3.7523   3.7524
     3.8077   3.9080   3.9230   3.9232   3.9864   4.3287   4.3395   4.3395
     4.5004   4.5007   4.7498   4.8523   4.8879   4.8883   5.0107   5.0108
     5.0737   5.0738   5.1858   5.2767   5.2771   6.0320

          k = 0.3750-0.3750-0.3750 ( 37779 PWs)   bands (ev):

    -5.5024  -5.2565  -5.2563  -5.2079  -5.0050  -5.0048  -4.9050  -4.6905
    -3.7593  -3.7592  -3.7372  -3.6023  -3.6021  -3.5875  -3.5728  -3.5726
    -3.5519  -3.4685  -3.4684  -3.2725  -3.0629  -3.0624  -3.0552  -3.0133
    -3.0133  -2.9771  -2.9746  -2.9744  -2.9638  -2.9059  -2.9055  -1.9798
    -0.8773  -0.8771  -0.8136  -0.7604  -0.7523  -0.7521  -0.7209  -0.7208
    -0.6540  -0.6090  -0.6088  -0.5978  -0.5249  -0.5246  -0.3118  -0.2281
    -0.2195  -0.2192  -0.1237  -0.1235   0.1516   0.1853   0.1855   0.8812
     1.2980   1.6270   1.6272   1.8665   2.0540   2.0541   2.0818   2.0820
     2.0821   2.0920   2.1624   2.1625   2.1819   2.2681   2.2682   2.3630
     2.3737   2.3740   2.5469   2.6564   2.6564   2.6674   2.7258   2.7258
     2.7461   2.8605   2.8609   2.9287   2.9291   2.9490   3.0491   3.3865
     3.3887   3.3890   3.4279   3.4282   3.4516   3.5138   3.5397   3.5398
     3.6265   3.6797   3.6798   3.7189   3.7192   3.7246   3.7523   3.7524
     3.8077   3.9080   3.9230   3.9232   3.9864   4.3287   4.3395   4.3395
     4.5004   4.5007   4.7498   4.8523   4.8879   4.8883   5.0107   5.0108
     5.0737   5.0738   5.1858   5.2767   5.2771   6.0320

          k = 0.3750-0.3750-0.1250 ( 37741 PWs)   bands (ev):

    -5.6295  -5.3829  -5.3378  -5.0960  -4.8510  -4.6359  -4.5832  -4.3939
    -4.3330  -4.1581  -4.1071  -3.9436  -3.8490  -3.7992  -3.6442  -3.6060
    -3.4099  -3.3897  -3.3516  -3.2562  -3.1491  -3.1175  -3.1088  -3.0363
    -2.9520  -2.9287  -2.8699  -2.7071  -2.5239  -2.4033  -2.3408  -1.8946
    -1.3206  -1.2250  -1.1384  -0.9488  -0.8851  -0.8838  -0.8583  -0.8023
    -0.7918  -0.7024  -0.6316  -0.5766  -0.5638  -0.4813  -0.4437  -0.2481
    -0.0099   0.1404   0.2197   0.3320   0.3589   0.4540   0.4558   0.7873
     0.9574   0.9678   1.5073   1.6185   1.7224   1.7774   1.9582   2.0211
     2.0393   2.0932   2.2058   2.2358   2.2914   2.3028   2.4185   2.4508
     2.5238   2.5363   2.6291   2.6293   2.7249   2.9081   2.9331   2.9728
     2.9931   3.0397   3.0730   3.0781   3.1365   3.1687   3.2691   3.2835
     3.3172   3.3275   3.3539   3.3970   3.4059   3.4450   3.4897   3.5000
     3.5496   3.5960   3.7226   3.7684   3.7876   3.8073   3.8103   3.8684
     3.8778   3.9460   4.0044   4.0393   4.0704   4.1511   4.1721   4.2197
     4.3080   4.3338   4.3875   4.4323   4.5222   4.5340   4.6638   4.7490
     4.8915   5.0040   5.0617   5.2535   5.5039   5.7662

          k = 0.3750-0.1250 0.1250 ( 37741 PWs)   bands (ev):

    -5.7580  -5.4848  -4.9925  -4.9600  -4.7471  -4.6908  -4.4774  -4.4457
    -4.2845  -4.2493  -4.1832  -4.0682  -3.9388  -3.8534  -3.8362  -3.7463
    -3.6421  -3.5352  -3.4435  -3.3667  -3.2467  -3.1469  -3.0302  -2.8879
    -2.7601  -2.6632  -2.5508  -2.4227  -2.2967  -2.2833  -2.2058  -1.8371
    -1.4133  -1.4072  -1.3444  -1.1911  -1.0464  -0.9708  -0.8495  -0.8163
    -0.7523  -0.6815  -0.6420  -0.6115  -0.5857  -0.4666  -0.3210  -0.2579
    -0.2250  -0.1649  -0.1335   0.2706   0.5025   0.7747   0.8330   1.1211
     1.3337   1.4970   1.5464   1.6788   1.7032   1.7559   1.7772   1.9026
     1.9120   1.9923   2.0368   2.0509   2.1021   2.1497   2.2279   2.4568
     2.4737   2.6084   2.6908   2.7230   2.7665   2.8313   2.8960   2.9228
     2.9302   2.9669   3.0029   3.0288   3.0773   3.1004   3.1314   3.2155
     3.2542   3.2901   3.3026   3.3512   3.3866   3.4203   3.5179   3.5235
     3.5671   3.6660   3.6909   3.7624   3.7801   3.8018   3.8404   3.9082
     3.9374   4.0064   4.0672   4.2065   4.2077   4.2982   4.3496   4.3993
     4.4030   4.4572   4.4580   4.5330   4.6386   4.6876   4.7487   4.7812
     4.8015   4.8832   4.8891   5.2221   5.3056   5.8005

          k = 0.3750-0.1250 0.3750 ( 37741 PWs)   bands (ev):

    -5.6295  -5.3829  -5.3378  -5.0960  -4.8510  -4.6359  -4.5832  -4.3939
    -4.3330  -4.1581  -4.1071  -3.9436  -3.8490  -3.7992  -3.6442  -3.6060
    -3.4099  -3.3897  -3.3516  -3.2562  -3.1491  -3.1175  -3.1088  -3.0363
    -2.9520  -2.9287  -2.8699  -2.7071  -2.5239  -2.4033  -2.3408  -1.8946
    -1.3206  -1.2250  -1.1384  -0.9488  -0.8851  -0.8838  -0.8583  -0.8023
    -0.7918  -0.7024  -0.6316  -0.5766  -0.5638  -0.4813  -0.4437  -0.2481
    -0.0099   0.1404   0.2197   0.3320   0.3589   0.4540   0.4558   0.7873
     0.9574   0.9678   1.5073   1.6185   1.7224   1.7774   1.9582   2.0211
     2.0393   2.0932   2.2058   2.2358   2.2914   2.3028   2.4185   2.4508
     2.5238   2.5363   2.6291   2.6293   2.7249   2.9081   2.9331   2.9728
     2.9931   3.0397   3.0730   3.0781   3.1365   3.1687   3.2691   3.2835
     3.3172   3.3275   3.3539   3.3970   3.4059   3.4450   3.4897   3.5000
     3.5496   3.5960   3.7226   3.7684   3.7876   3.8073   3.8103   3.8684
     3.8778   3.9460   4.0044   4.0393   4.0704   4.1511   4.1721   4.2197
     4.3080   4.3338   4.3875   4.4323   4.5222   4.5340   4.6638   4.7490
     4.8915   5.0040   5.0617   5.2535   5.5039   5.7662

          k = 0.3750-0.1250-0.3750 ( 37741 PWs)   bands (ev):

    -5.6295  -5.3828  -5.3379  -5.0960  -4.8510  -4.6358  -4.5833  -4.3939
    -4.3330  -4.1580  -4.1072  -3.9436  -3.8489  -3.7992  -3.6445  -3.6057
    -3.4103  -3.3896  -3.3515  -3.2562  -3.1490  -3.1173  -3.1090  -3.0364
    -2.9520  -2.9286  -2.8700  -2.7072  -2.5238  -2.4030  -2.3409  -1.8946
    -1.3205  -1.2251  -1.1386  -0.9488  -0.8852  -0.8842  -0.8584  -0.8025
    -0.7917  -0.7026  -0.6313  -0.5762  -0.5636  -0.4811  -0.4438  -0.2477
    -0.0097   0.1401   0.2194   0.3320   0.3589   0.4539   0.4559   0.7875
     0.9572   0.9676   1.5073   1.6186   1.7222   1.7773   1.9585   2.0211
     2.0394   2.0934   2.2059   2.2357   2.2913   2.3026   2.4187   2.4510
     2.5236   2.5362   2.6289   2.6291   2.7251   2.9082   2.9328   2.9726
     2.9932   3.0396   3.0727   3.0786   3.1364   3.1690   3.2690   3.2837
     3.3172   3.3276   3.3538   3.3971   3.4059   3.4453   3.4895   3.5002
     3.5492   3.5961   3.7227   3.7683   3.7875   3.8072   3.8102   3.8682
     3.8780   3.9460   4.0044   4.0394   4.0704   4.1512   4.1722   4.2195
     4.3079   4.3336   4.3875   4.4323   4.5220   4.5337   4.6640   4.7491
     4.8916   5.0043   5.0616   5.2539   5.5035   5.7661

          k = 0.3750-0.1250-0.1250 ( 37741 PWs)   bands (ev):

    -5.7580  -5.4848  -4.9926  -4.9599  -4.7473  -4.6907  -4.4775  -4.4456
    -4.2844  -4.2494  -4.1830  -4.0683  -3.9389  -3.8531  -3.8366  -3.7460
    -3.6424  -3.5350  -3.4434  -3.3668  -3.2465  -3.1467  -3.0304  -2.8880
    -2.7602  -2.6631  -2.5508  -2.4226  -2.2964  -2.2836  -2.2056  -1.8374
    -1.4135  -1.4068  -1.3442  -1.1911  -1.0468  -0.9710  -0.8498  -0.8162
    -0.7521  -0.6815  -0.6417  -0.6115  -0.5856  -0.4667  -0.3210  -0.2579
    -0.2248  -0.1648  -0.1334   0.2706   0.5024   0.7747   0.8327   1.1209
     1.3336   1.4973   1.5464   1.6789   1.7031   1.7561   1.7771   1.9027
     1.9121   1.9924   2.0367   2.0510   2.1019   2.1496   2.2279   2.4569
     2.4737   2.6080   2.6908   2.7234   2.7665   2.8313   2.8961   2.9227
     2.9301   2.9667   3.0029   3.0288   3.0774   3.1003   3.1314   3.2152
     3.2544   3.2902   3.3025   3.3512   3.3871   3.4205   3.5178   3.5235
     3.5671   3.6661   3.6910   3.7623   3.7798   3.8017   3.8404   3.9081
     3.9374   4.0064   4.0670   4.2062   4.2078   4.2978   4.3498   4.3989
     4.4033   4.4572   4.4580   4.5330   4.6386   4.6876   4.7488   4.7816
     4.8017   4.8831   4.8891   5.2223   5.3054   5.8006

     highest occupied level (ev):     6.0474

!    total energy              =    -719.19596823 Ry
     Harris-Foulkes estimate   =    -719.19596823 Ry
     estimated scf accuracy    <          6.0E-11 Ry

     The total energy is the sum of the following terms:

     one-electron contribution =     151.85350870 Ry
     hartree contribution      =      36.50002584 Ry
     xc contribution           =    -386.20517982 Ry
     ewald contribution        =    -521.34432295 Ry

     convergence has been achieved in   6 iterations

     Forces acting on atoms (cartesian axes, Ry/au):

     atom    1 type  1   force =    -0.00000701   -0.00000692    0.00000700
     atom    2 type  1   force =     0.00000617   -0.00000114    0.00000122
     atom    3 type  1   force =    -0.00000117    0.00000610    0.00000118
     atom    4 type  1   force =    -0.00000181   -0.00000187   -0.00000980
     atom    5 type  1   force =    -0.00000085   -0.00000083   -0.00000391
     atom    6 type  1   force =     0.00000224   -0.00000503    0.00000334
     atom    7 type  1   force =    -0.00000509    0.00000220    0.00000335
     atom    8 type  1   force =     0.00000573    0.00000570    0.00000504
     atom    9 type  1   force =    -0.00000009   -0.00000003   -0.00000100
     atom   10 type  1   force =    -0.00000249    0.00000266    0.00000358
     atom   11 type  1   force =     0.00000261   -0.00000256    0.00000359
     atom   12 type  1   force =    -0.00000261   -0.00000268   -0.00000574
     atom   13 type  1   force =    -0.00000005   -0.00000005   -0.00000090
     atom   14 type  1   force =     0.00000154    0.00000090   -0.00000149
     atom   15 type  1   force =     0.00000092    0.00000157   -0.00000148
     atom   16 type  1   force =    -0.00000061   -0.00000058    0.00000062
     atom   17 type  1   force =    -0.00000508   -0.00000329   -0.00000225
     atom   18 type  1   force =     0.00000577   -0.00000496   -0.00000576
     atom   19 type  1   force =     0.00000170   -0.00000216    0.00000680
     atom   20 type  1   force =     0.00000471    0.00000730   -0.00000468
     atom   21 type  1   force =    -0.00000212    0.00000173    0.00000679
     atom   22 type  1   force =    -0.00000333   -0.00000501   -0.00000226
     atom   23 type  1   force =     0.00000736    0.00000467   -0.00000471
     atom   24 type  1   force =    -0.00000501    0.00000571   -0.00000575
     atom   25 type  1   force =    -0.00000461    0.00000370    0.00000292
     atom   26 type  1   force =    -0.00000363    0.00000267    0.00000243
     atom   27 type  1   force =     0.00000269    0.00000074   -0.00000079
     atom   28 type  1   force =     0.00000575   -0.00000268    0.00000256
     atom   29 type  1   force =     0.00000079    0.00000274   -0.00000080
     atom   30 type  1   force =     0.00000368   -0.00000463    0.00000294
     atom   31 type  1   force =    -0.00000259    0.00000575    0.00000257
     atom   32 type  1   force =     0.00000260   -0.00000361    0.00000241
     atom   33 type  1   force =    -0.00000119   -0.00000115   -0.00000623
     atom   34 type  1   force =    -0.00000176    0.00000980    0.00000175
     atom   35 type  1   force =     0.00000980   -0.00000185    0.00000176
     atom   36 type  1   force =     0.00000193    0.00000198    0.00000717
     atom   37 type  1   force =    -0.00000679    0.00000170    0.00000207
     atom   38 type  1   force =     0.00000168   -0.00000682    0.00000208
     atom   39 type  1   force =     0.00000473    0.00000470   -0.00000749
     atom   40 type  1   force =     0.00000121    0.00000125    0.00000080
     atom   41 type  1   force =    -0.00000296    0.00000368    0.00000461
     atom   42 type  1   force =     0.00000367   -0.00000298    0.00000466
     atom   43 type  1   force =     0.00000072    0.00000068   -0.00000259
     atom   44 type  1   force =     0.00000523    0.00000519   -0.00000529
     atom   45 type  1   force =     0.00000092   -0.00000004    0.00000003
     atom   46 type  1   force =    -0.00000005    0.00000086    0.00000004
     atom   47 type  1   force =     0.00000153    0.00000156   -0.00000098
     atom   48 type  1   force =    -0.00000091    0.00000392    0.00000090
     atom   49 type  1   force =     0.00000224   -0.00000324    0.00000509
     atom   50 type  1   force =     0.00000190   -0.00000733   -0.00000185
     atom   51 type  1   force =    -0.00000685   -0.00000213   -0.00000164
     atom   52 type  1   force =    -0.00000729    0.00000195   -0.00000185
     atom   53 type  1   force =     0.00000392   -0.00000086    0.00000089
     atom   54 type  1   force =    -0.00000211   -0.00000688   -0.00000165
     atom   55 type  1   force =    -0.00000329    0.00000218    0.00000510
     atom   56 type  1   force =    -0.00000068    0.00000123   -0.00000116
     atom   57 type  1   force =     0.00000101   -0.00000005    0.00000016
     atom   58 type  1   force =    -0.00000470   -0.00000300   -0.00000366
     atom   59 type  1   force =    -0.00000360   -0.00000258   -0.00000257
     atom   60 type  1   force =    -0.00000300   -0.00000470   -0.00000366
     atom   61 type  1   force =     0.00000119   -0.00000060   -0.00000116
     atom   62 type  1   force =    -0.00000248   -0.00000359   -0.00000253
     atom   63 type  1   force =    -0.00000010    0.00000098    0.00000015

     Total force =     0.000051     Total SCF correction =     0.000015
     SCF correction compared to forces is large: reduce conv_thr to get better values

     bfgs converged in  28 scf cycles and  27 bfgs steps
     (criteria: energy <  1.0E-06 Ry, force <  1.0E-05 Ry/Bohr)

     End of BFGS Geometry Optimization

     Final energy   =    -719.1959682258 Ry
Begin final coordinates

ATOMIC_POSITIONS (alat)
Si       0.000038912   0.000038872  -0.000038929
Si       0.500069939   0.001087936  -0.001087977
Si       0.001087959   0.500069966  -0.001087968
Si       0.499789281   0.499789315  -0.000484205
Si       0.250185220   0.250185212  -0.000545377
Si       0.748939882   0.249971952  -0.001097504
Si       0.249971983   0.748939892  -0.001097534
Si       0.749961086   0.749961112  -0.000048476
Si       0.125392074   0.125392035   0.125153081
Si       0.624652321   0.125402450   0.124857284
Si       0.125402487   0.624652361   0.124857271
Si       0.624638294   0.624638333   0.125159867
Si       0.374962489   0.374962494   0.125047971
Si       0.875015093   0.374995300   0.124984889
Si       0.374995296   0.875015078   0.124984881
Si       0.874986074   0.874986075   0.125013930
Si       0.249971968   0.001097456   0.251060115
Si       0.749961069   0.000048448   0.250038925
Si       0.250157189   0.499794176   0.250555807
Si       0.748950246   0.500036932   0.251049751
Si       0.499794149   0.250157175   0.250555812
Si       0.001097483   0.249971935   0.251060108
Si       0.500036897   0.748950258   0.251049767
Si       0.000048480   0.749961099   0.250038915
Si       0.374684663   0.128267851   0.378331319
Si       0.875142693   0.125402449   0.375347698
Si       0.375270141   0.621740522   0.378259472
Si       0.874840136   0.624638321   0.375361725
Si       0.621740533   0.375270121   0.378259455
Si       0.128267839   0.374684702   0.378331303
Si       0.624638258   0.874840154   0.375361743
Si       0.125402502   0.875142671   0.375347709
Si       0.001087957   0.001087921   0.499930072
Si       0.499789249   0.000484245   0.500210758
Si       0.000484221   0.499789294   0.500210743
Si       0.257851924   0.257851948   0.507865526
Si       0.749444156   0.250157182   0.500205865
Si       0.250157209   0.749444136   0.500205881
Si       0.748950214   0.748950248   0.499963120
Si       0.128287002   0.128286998   0.624716843
Si       0.621668631   0.128267889   0.625315361
Si       0.128267899   0.621668626   0.625315363
Si       0.621740502   0.621740514   0.624729870
Si       0.492298516   0.492298498   0.507701464
Si       0.874952011   0.374962488   0.625037523
Si       0.374962482   0.874952015   0.625037525
Si       0.875015089   0.875015078   0.625004738
Si       0.250185250   0.000545406   0.749814760
Si       0.748939858   0.001097490   0.750028040
Si       0.257852003   0.492134375   0.742148065
Si       0.749444180   0.499794174   0.749842817
Si       0.492134411   0.257852010   0.742148088
Si       0.000545387   0.250185223   0.749814775
Si       0.499794128   0.749444157   0.749842810
Si       0.001097533   0.748939882   0.750028033
Si       0.375283155   0.128287010   0.871713001
Si       0.874846916   0.125392059   0.874607911
Si       0.374684674   0.621668656   0.871732140
Si       0.875142714   0.624652359   0.874597518
Si       0.621668679   0.374684719   0.871732168
Si       0.128287004   0.375283139   0.871713004
Si       0.624652301   0.875142685   0.874597504
Si       0.125392111   0.874846927   0.874607889
End final coordinates



     Writing output data file si.save
 
     init_run     :     62.11s CPU     62.38s WALL (       1 calls)
     electrons    :  32751.75s CPU  32969.92s WALL (      28 calls)
     update_pot   :      4.24s CPU      4.56s WALL (      27 calls)
     forces       :    819.60s CPU    824.09s WALL (      28 calls)

     Called by init_run:
     wfcinit      :     61.66s CPU     61.91s WALL (       1 calls)
     potinit      :      0.07s CPU      0.07s WALL (       1 calls)

     Called by electrons:
     c_bands      :  29861.78s CPU  30060.59s WALL (     254 calls)
     sum_band     :   2847.20s CPU   2862.56s WALL (     254 calls)
     v_of_rho     :     11.74s CPU     11.75s WALL (     256 calls)
     newd         :     32.15s CPU     36.39s WALL (     256 calls)
     mix_rho      :      2.01s CPU      2.00s WALL (     254 calls)

     Called by c_bands:
     init_us_2    :    358.05s CPU    358.86s WALL (   17184 calls)
     cegterg      :  28038.38s CPU  28228.63s WALL (    8128 calls)

     Called by sum_band:
     sum_band:bec :     13.68s CPU     13.47s WALL (    8128 calls)
     addusdens    :     30.93s CPU     35.03s WALL (     254 calls)

     Called by *egterg:
     h_psi        :  15703.03s CPU  15754.35s WALL (   45764 calls)
     s_psi        :   4940.00s CPU   4948.06s WALL (   45764 calls)
     g_psi        :     74.02s CPU     74.19s WALL (   37604 calls)
     cdiaghg      :   2896.27s CPU   2900.94s WALL (   44036 calls)

     Called by h_psi:
     h_psi:pot    :  15603.48s CPU  15653.78s WALL (   45764 calls)
     h_psi:calbec :   4772.63s CPU   4792.90s WALL (   45764 calls)
     vloc_psi     :   5861.67s CPU   5884.23s WALL (   45764 calls)
     add_vuspsi   :   4968.89s CPU   4976.39s WALL (   45764 calls)

     General routines
     calbec       :   6969.31s CPU   6998.84s WALL (   57476 calls)
     fft          :      6.66s CPU      6.75s WALL (    3713 calls)
     fftw         :   6226.18s CPU   6250.64s WALL ( 7059496 calls)
     davcio       :      0.06s CPU     27.30s WALL (      32 calls)
 
     Parallel routines
     fft_scatter  :   1240.38s CPU   1245.66s WALL ( 7063209 calls)
 
     PWSCF        :     9h20m CPU        9h24m WALL

 
   This run was terminated on:  23:38:31  30Jul2019            

=------------------------------------------------------------------------------=
   JOB DONE.
=------------------------------------------------------------------------------=
