
     Program PWSCF v.6.1 (svn rev. 13369) starts on 30Jul2019 at 14:13: 6 

     This program is part of the open-source Quantum ESPRESSO suite
     for quantum simulation of materials; please cite
         "P. Giannozzi et al., J. Phys.:Condens. Matter 21 395502 (2009);
          URL http://www.quantum-espresso.org", 
     in publications or presentations arising from this work. More details at
     http://www.quantum-espresso.org/quote

     Parallel version (MPI), running on    12 processors
     R & G space division:  proc/nbgrp/npool/nimage =      12
     Reading input from si.supercell_2_vac_1_relax.in

     Current dimensions of program PWSCF are:
     Max number of different atomic species (ntypx) = 10
     Max number of k-points (npk) =  40000
     Max angular momentum in pseudopotentials (lmaxx) =  3

     Subspace diagonalization in iterative solution of the eigenvalue problem:
     a serial algorithm will be used

 
     Parallelization info
     --------------------
     sticks:   dense  smooth     PW     G-vecs:    dense   smooth      PW
     Min         452     452    120                25137    25137    3448
     Max         453     453    121                25139    25139    3451
     Sum        5433    5433   1449               301651   301651   41395
 


     bravais-lattice index     =            1
     lattice parameter (alat)  =      20.6714  a.u.
     unit-cell volume          =    8833.0058 (a.u.)^3
     number of atoms/cell      =           63
     number of atomic types    =            1
     number of electrons       =       252.00
     number of Kohn-Sham states=          126
     kinetic-energy cutoff     =      40.0000  Ry
     charge density cutoff     =     160.0000  Ry
     convergence threshold     =      1.0E-08
     mixing beta               =       0.7000
     number of iterations used =            8  plain     mixing
     Exchange-correlation      = PBE ( 1  4  3  4 0 0)
     nstep                     =           50


     celldm(1)=  20.671382  celldm(2)=   0.000000  celldm(3)=   0.000000
     celldm(4)=   0.000000  celldm(5)=   0.000000  celldm(6)=   0.000000

     crystal axes: (cart. coord. in units of alat)
               a(1) = (   1.000000   0.000000   0.000000 )  
               a(2) = (   0.000000   1.000000   0.000000 )  
               a(3) = (   0.000000   0.000000   1.000000 )  

     reciprocal axes: (cart. coord. in units 2 pi/alat)
               b(1) = (  1.000000  0.000000  0.000000 )  
               b(2) = (  0.000000  1.000000  0.000000 )  
               b(3) = (  0.000000  0.000000  1.000000 )  


     PseudoPot. # 1 for Si read from file:
     ~/download/SSSP_precision_pseudos/Si.pbe-n-rrkjus_psl.1.0.0.UPF
     MD5 check sum: Not computed, couldn't open file
     Pseudo is Ultrasoft + core correction, Zval =  4.0
     Generated using "atomic" code by A. Dal Corso  v.5.1
     Using radial grid of 1141 points,  6 beta functions with: 
                l(1) =   0
                l(2) =   0
                l(3) =   1
                l(4) =   1
                l(5) =   2
                l(6) =   2
     Q(r) pseudized with 0 coefficients 


     atomic species   valence    mass     pseudopotential
        Si             4.00    28.08550     Si( 1.00)

     No symmetry found



   Cartesian axes

     site n.     atom                  positions (alat units)
         1           Si  tau(   1) = (   0.0000000   0.0000000   0.0000000  )
         2           Si  tau(   2) = (   0.5000000   0.0000000   0.0000000  )
         3           Si  tau(   3) = (   0.0000000   0.5000000   0.0000000  )
         4           Si  tau(   4) = (   0.5000000   0.5000000   0.0000000  )
         5           Si  tau(   5) = (   0.2500000   0.2500000   0.0000000  )
         6           Si  tau(   6) = (   0.7500000   0.2500000   0.0000000  )
         7           Si  tau(   7) = (   0.2500000   0.7500000   0.0000000  )
         8           Si  tau(   8) = (   0.7500000   0.7500000   0.0000000  )
         9           Si  tau(   9) = (   0.1250000   0.1250000   0.1250000  )
        10           Si  tau(  10) = (   0.6250000   0.1250000   0.1250000  )
        11           Si  tau(  11) = (   0.1250000   0.6250000   0.1250000  )
        12           Si  tau(  12) = (   0.6250000   0.6250000   0.1250000  )
        13           Si  tau(  13) = (   0.3750000   0.3750000   0.1250000  )
        14           Si  tau(  14) = (   0.8750000   0.3750000   0.1250000  )
        15           Si  tau(  15) = (   0.3750000   0.8750000   0.1250000  )
        16           Si  tau(  16) = (   0.8750000   0.8750000   0.1250000  )
        17           Si  tau(  17) = (   0.2500000   0.0000000   0.2500000  )
        18           Si  tau(  18) = (   0.7500000   0.0000000   0.2500000  )
        19           Si  tau(  19) = (   0.2500000   0.5000000   0.2500000  )
        20           Si  tau(  20) = (   0.7500000   0.5000000   0.2500000  )
        21           Si  tau(  21) = (   0.5000000   0.2500000   0.2500000  )
        22           Si  tau(  22) = (   0.0000000   0.2500000   0.2500000  )
        23           Si  tau(  23) = (   0.5000000   0.7500000   0.2500000  )
        24           Si  tau(  24) = (   0.0000000   0.7500000   0.2500000  )
        25           Si  tau(  25) = (   0.3750000   0.1250000   0.3750000  )
        26           Si  tau(  26) = (   0.8750000   0.1250000   0.3750000  )
        27           Si  tau(  27) = (   0.3750000   0.6250000   0.3750000  )
        28           Si  tau(  28) = (   0.8750000   0.6250000   0.3750000  )
        29           Si  tau(  29) = (   0.6250000   0.3750000   0.3750000  )
        30           Si  tau(  30) = (   0.1250000   0.3750000   0.3750000  )
        31           Si  tau(  31) = (   0.6250000   0.8750000   0.3750000  )
        32           Si  tau(  32) = (   0.1250000   0.8750000   0.3750000  )
        33           Si  tau(  33) = (   0.0000000   0.0000000   0.5000000  )
        34           Si  tau(  34) = (   0.5000000   0.0000000   0.5000000  )
        35           Si  tau(  35) = (   0.0000000   0.5000000   0.5000000  )
        36           Si  tau(  36) = (   0.2500000   0.2500000   0.5000000  )
        37           Si  tau(  37) = (   0.7500000   0.2500000   0.5000000  )
        38           Si  tau(  38) = (   0.2500000   0.7500000   0.5000000  )
        39           Si  tau(  39) = (   0.7500000   0.7500000   0.5000000  )
        40           Si  tau(  40) = (   0.1250000   0.1250000   0.6250000  )
        41           Si  tau(  41) = (   0.6250000   0.1250000   0.6250000  )
        42           Si  tau(  42) = (   0.1250000   0.6250000   0.6250000  )
        43           Si  tau(  43) = (   0.6250000   0.6250000   0.6250000  )
        44           Si  tau(  44) = (   0.3750000   0.3750000   0.6250000  )
        45           Si  tau(  45) = (   0.8750000   0.3750000   0.6250000  )
        46           Si  tau(  46) = (   0.3750000   0.8750000   0.6250000  )
        47           Si  tau(  47) = (   0.8750000   0.8750000   0.6250000  )
        48           Si  tau(  48) = (   0.2500000   0.0000000   0.7500000  )
        49           Si  tau(  49) = (   0.7500000   0.0000000   0.7500000  )
        50           Si  tau(  50) = (   0.2500000   0.5000000   0.7500000  )
        51           Si  tau(  51) = (   0.7500000   0.5000000   0.7500000  )
        52           Si  tau(  52) = (   0.5000000   0.2500000   0.7500000  )
        53           Si  tau(  53) = (   0.0000000   0.2500000   0.7500000  )
        54           Si  tau(  54) = (   0.5000000   0.7500000   0.7500000  )
        55           Si  tau(  55) = (   0.0000000   0.7500000   0.7500000  )
        56           Si  tau(  56) = (   0.3750000   0.1250000   0.8750000  )
        57           Si  tau(  57) = (   0.8750000   0.1250000   0.8750000  )
        58           Si  tau(  58) = (   0.3750000   0.6250000   0.8750000  )
        59           Si  tau(  59) = (   0.8750000   0.6250000   0.8750000  )
        60           Si  tau(  60) = (   0.6250000   0.3750000   0.8750000  )
        61           Si  tau(  61) = (   0.1250000   0.3750000   0.8750000  )
        62           Si  tau(  62) = (   0.6250000   0.8750000   0.8750000  )
        63           Si  tau(  63) = (   0.1250000   0.8750000   0.8750000  )

     number of k points=    32
                       cart. coord. in units 2pi/alat
        k(    1) = (   0.1250000   0.1250000   0.1250000), wk =   0.0625000
        k(    2) = (   0.1250000   0.1250000   0.3750000), wk =   0.0625000
        k(    3) = (   0.1250000   0.1250000  -0.3750000), wk =   0.0625000
        k(    4) = (   0.1250000   0.1250000  -0.1250000), wk =   0.0625000
        k(    5) = (   0.1250000   0.3750000   0.1250000), wk =   0.0625000
        k(    6) = (   0.1250000   0.3750000   0.3750000), wk =   0.0625000
        k(    7) = (   0.1250000   0.3750000  -0.3750000), wk =   0.0625000
        k(    8) = (   0.1250000   0.3750000  -0.1250000), wk =   0.0625000
        k(    9) = (   0.1250000  -0.3750000   0.1250000), wk =   0.0625000
        k(   10) = (   0.1250000  -0.3750000   0.3750000), wk =   0.0625000
        k(   11) = (   0.1250000  -0.3750000  -0.3750000), wk =   0.0625000
        k(   12) = (   0.1250000  -0.3750000  -0.1250000), wk =   0.0625000
        k(   13) = (   0.1250000  -0.1250000   0.1250000), wk =   0.0625000
        k(   14) = (   0.1250000  -0.1250000   0.3750000), wk =   0.0625000
        k(   15) = (   0.1250000  -0.1250000  -0.3750000), wk =   0.0625000
        k(   16) = (   0.1250000  -0.1250000  -0.1250000), wk =   0.0625000
        k(   17) = (   0.3750000   0.1250000   0.1250000), wk =   0.0625000
        k(   18) = (   0.3750000   0.1250000   0.3750000), wk =   0.0625000
        k(   19) = (   0.3750000   0.1250000  -0.3750000), wk =   0.0625000
        k(   20) = (   0.3750000   0.1250000  -0.1250000), wk =   0.0625000
        k(   21) = (   0.3750000   0.3750000   0.1250000), wk =   0.0625000
        k(   22) = (   0.3750000   0.3750000   0.3750000), wk =   0.0625000
        k(   23) = (   0.3750000   0.3750000  -0.3750000), wk =   0.0625000
        k(   24) = (   0.3750000   0.3750000  -0.1250000), wk =   0.0625000
        k(   25) = (   0.3750000  -0.3750000   0.1250000), wk =   0.0625000
        k(   26) = (   0.3750000  -0.3750000   0.3750000), wk =   0.0625000
        k(   27) = (   0.3750000  -0.3750000  -0.3750000), wk =   0.0625000
        k(   28) = (   0.3750000  -0.3750000  -0.1250000), wk =   0.0625000
        k(   29) = (   0.3750000  -0.1250000   0.1250000), wk =   0.0625000
        k(   30) = (   0.3750000  -0.1250000   0.3750000), wk =   0.0625000
        k(   31) = (   0.3750000  -0.1250000  -0.3750000), wk =   0.0625000
        k(   32) = (   0.3750000  -0.1250000  -0.1250000), wk =   0.0625000

     Dense  grid:   301651 G-vectors     FFT dimensions: (  90,  90,  90)

     Estimated max dynamical RAM per process >     326.68MB

     Estimated total allocated dynamical RAM >    3920.21MB

     Check: negative/imaginary core charge=   -0.000003    0.000000

     Initial potential from superposition of free atoms

     starting charge  251.96477, renormalised to  252.00000
     Starting wfc are  252 randomized atomic wfcs

     total cpu time spent up to now is       63.2 secs

     per-process dynamical memory:   311.6 Mb

     Self-consistent Calculation

     iteration #  1     ecut=    40.00 Ry     beta=0.70
     Davidson diagonalization with overlap
     ethr =  1.00E-02,  avg # of iterations =  2.0

     Threshold (ethr) on eigenvalues was too large:
     Diagonalizing with lowered threshold

     Davidson diagonalization with overlap
     ethr =  6.53E-04,  avg # of iterations =  3.8

     total cpu time spent up to now is      274.1 secs

     total energy              =    -719.08249260 Ry
     Harris-Foulkes estimate   =    -719.49734923 Ry
     estimated scf accuracy    <       1.64866485 Ry

     iteration #  2     ecut=    40.00 Ry     beta=0.70
     Davidson diagonalization with overlap
     ethr =  6.54E-04,  avg # of iterations =  3.1

     total cpu time spent up to now is      365.8 secs

     total energy              =    -719.08671178 Ry
     Harris-Foulkes estimate   =    -719.20403723 Ry
     estimated scf accuracy    <       0.20841418 Ry

     iteration #  3     ecut=    40.00 Ry     beta=0.70
     Davidson diagonalization with overlap
     ethr =  8.27E-05,  avg # of iterations =  7.9

     total cpu time spent up to now is      538.8 secs

     total energy              =    -718.93804141 Ry
     Harris-Foulkes estimate   =    -719.37505886 Ry
     estimated scf accuracy    <       1.47706893 Ry

     iteration #  4     ecut=    40.00 Ry     beta=0.70
     Davidson diagonalization with overlap
     ethr =  8.27E-05,  avg # of iterations =  5.7

     total cpu time spent up to now is      691.9 secs

     total energy              =    -719.17022642 Ry
     Harris-Foulkes estimate   =    -719.20951368 Ry
     estimated scf accuracy    <       0.15792052 Ry

     iteration #  5     ecut=    40.00 Ry     beta=0.70
     Davidson diagonalization with overlap
     ethr =  6.27E-05,  avg # of iterations =  2.1

     total cpu time spent up to now is      795.3 secs

     total energy              =    -719.18332819 Ry
     Harris-Foulkes estimate   =    -719.18906629 Ry
     estimated scf accuracy    <       0.01794966 Ry

     iteration #  6     ecut=    40.00 Ry     beta=0.70
     Davidson diagonalization with overlap
     ethr =  7.12E-06,  avg # of iterations =  4.0

     total cpu time spent up to now is      925.6 secs

     total energy              =    -719.18716952 Ry
     Harris-Foulkes estimate   =    -719.18764638 Ry
     estimated scf accuracy    <       0.00108764 Ry

     iteration #  7     ecut=    40.00 Ry     beta=0.70
     Davidson diagonalization with overlap
     ethr =  4.32E-07,  avg # of iterations =  4.6

     total cpu time spent up to now is     1055.0 secs

     total energy              =    -719.18741745 Ry
     Harris-Foulkes estimate   =    -719.18755431 Ry
     estimated scf accuracy    <       0.00056215 Ry

     iteration #  8     ecut=    40.00 Ry     beta=0.70
     Davidson diagonalization with overlap
     ethr =  2.23E-07,  avg # of iterations =  2.3

     total cpu time spent up to now is     1156.7 secs

     total energy              =    -719.18743284 Ry
     Harris-Foulkes estimate   =    -719.18747510 Ry
     estimated scf accuracy    <       0.00019238 Ry

     iteration #  9     ecut=    40.00 Ry     beta=0.70
     Davidson diagonalization with overlap
     ethr =  7.63E-08,  avg # of iterations =  3.9

     total cpu time spent up to now is     1265.4 secs

     total energy              =    -719.18745360 Ry
     Harris-Foulkes estimate   =    -719.18745628 Ry
     estimated scf accuracy    <       0.00000943 Ry

     iteration # 10     ecut=    40.00 Ry     beta=0.70
     Davidson diagonalization with overlap
     ethr =  3.74E-09,  avg # of iterations =  5.9

     total cpu time spent up to now is     1420.3 secs

     total energy              =    -719.18745673 Ry
     Harris-Foulkes estimate   =    -719.18745822 Ry
     estimated scf accuracy    <       0.00000549 Ry

     iteration # 11     ecut=    40.00 Ry     beta=0.70
     Davidson diagonalization with overlap
     ethr =  2.18E-09,  avg # of iterations =  5.9

     total cpu time spent up to now is     1539.6 secs

     total energy              =    -719.18745741 Ry
     Harris-Foulkes estimate   =    -719.18745766 Ry
     estimated scf accuracy    <       0.00000097 Ry

     iteration # 12     ecut=    40.00 Ry     beta=0.70
     Davidson diagonalization with overlap
     ethr =  3.87E-10,  avg # of iterations =  6.5

     total cpu time spent up to now is     1666.8 secs

     total energy              =    -719.18745750 Ry
     Harris-Foulkes estimate   =    -719.18745760 Ry
     estimated scf accuracy    <       0.00000030 Ry

     iteration # 13     ecut=    40.00 Ry     beta=0.70
     Davidson diagonalization with overlap
     ethr =  1.18E-10,  avg # of iterations =  6.3

     total cpu time spent up to now is     1791.7 secs

     total energy              =    -719.18745754 Ry
     Harris-Foulkes estimate   =    -719.18745758 Ry
     estimated scf accuracy    <       0.00000012 Ry

     iteration # 14     ecut=    40.00 Ry     beta=0.70
     Davidson diagonalization with overlap
     ethr =  4.88E-11,  avg # of iterations =  5.8

     total cpu time spent up to now is     1914.3 secs

     End of self-consistent calculation

          k = 0.1250 0.1250 0.1250 ( 37743 PWs)   bands (ev):

    -5.9236  -5.1587  -5.1587  -5.0711  -4.6371  -4.6371  -4.5579  -4.4265
    -4.4265  -4.3168  -3.9705  -3.9662  -3.9662  -3.9299  -3.9299  -3.9190
    -3.8274  -3.6918  -3.6918  -3.5896  -3.5379  -3.5379  -3.0095  -2.3801
    -2.3801  -2.3577  -2.2046  -2.2040  -2.2040  -2.1486  -2.1486  -1.7177
    -1.4612  -1.4555  -1.4555  -1.4101  -1.4099  -1.4099  -1.3258  -1.3258
    -1.0557  -0.9373  -0.9373  -0.7631  -0.4111  -0.2308  -0.2307   0.0489
     0.2568   0.2571   0.2571   0.3516   0.3516   0.7491   0.8975   0.8975
     1.4084   1.6507   1.6507   1.8378   1.8510   1.8510   1.8657   1.8886
     1.8886   1.9698   1.9778   1.9778   2.2383   2.2727   2.2903   2.2903
     2.3369   2.3369   2.4197   2.4369   2.4369   2.4471   2.5225   2.5642
     2.5642   2.6980   2.6980   2.7587   2.7647   2.7647   2.8895   2.8895
     3.0596   3.1031   3.2249   3.2249   3.6724   3.6724   3.7035   3.7640
     3.8700   3.8700   4.0570   4.1924   4.1924   4.2060   4.2181   4.2198
     4.2198   4.2604   4.2650   4.2650   4.2934   4.2934   4.3079   4.3339
     4.3340   4.4239   4.4239   4.5325   4.6149   4.6149   4.6218   4.7432
     4.7432   4.8018   5.1418   5.4970   5.4970   6.1608

          k = 0.1250 0.1250 0.3750 ( 37741 PWs)   bands (ev):

    -5.7959  -5.5189  -5.0354  -4.9862  -4.7870  -4.7149  -4.5212  -4.4722
    -4.3106  -4.2901  -4.2146  -4.0912  -3.9678  -3.8858  -3.8684  -3.7693
    -3.6705  -3.5675  -3.4644  -3.4046  -3.2697  -3.1740  -3.0694  -2.8819
    -2.7947  -2.6844  -2.5895  -2.4331  -2.3294  -2.3154  -2.2281  -1.8018
    -1.4452  -1.4368  -1.3674  -1.2101  -1.0741  -0.9999  -0.8507  -0.8477
    -0.7684  -0.6978  -0.6614  -0.6357  -0.6107  -0.4867  -0.3449  -0.2880
    -0.2528  -0.1673  -0.1422   0.2665   0.5019   0.7773   0.8029   1.1318
     1.3060   1.4781   1.5215   1.6623   1.6679   1.7297   1.7661   1.8793
     1.8923   1.9731   1.9944   2.0534   2.0889   2.1405   2.2061   2.4500
     2.4524   2.5869   2.6625   2.6845   2.7731   2.8046   2.8828   2.8984
     2.9230   2.9381   2.9753   2.9913   3.0810   3.0923   3.1000   3.2080
     3.2100   3.2621   3.3003   3.3445   3.3505   3.4049   3.4957   3.5178
     3.5856   3.6277   3.6657   3.7213   3.7505   3.7732   3.8421   3.8878
     3.9292   3.9962   4.0651   4.1852   4.2245   4.3120   4.3493   4.3591
     4.3809   4.4293   4.4362   4.5086   4.6106   4.6889   4.7446   4.7683
     4.7761   4.8533   5.0092   5.2092   5.3077   5.9057

          k = 0.1250 0.1250-0.3750 ( 37741 PWs)   bands (ev):

    -5.7959  -5.5189  -5.0354  -4.9862  -4.7870  -4.7149  -4.5212  -4.4722
    -4.3106  -4.2901  -4.2146  -4.0912  -3.9678  -3.8858  -3.8684  -3.7693
    -3.6705  -3.5675  -3.4644  -3.4046  -3.2697  -3.1740  -3.0694  -2.8819
    -2.7947  -2.6844  -2.5895  -2.4331  -2.3294  -2.3154  -2.2281  -1.8018
    -1.4452  -1.4368  -1.3674  -1.2101  -1.0741  -0.9999  -0.8507  -0.8477
    -0.7684  -0.6978  -0.6614  -0.6357  -0.6107  -0.4867  -0.3449  -0.2880
    -0.2528  -0.1673  -0.1422   0.2665   0.5019   0.7773   0.8029   1.1318
     1.3060   1.4782   1.5215   1.6623   1.6679   1.7297   1.7661   1.8793
     1.8923   1.9731   1.9944   2.0534   2.0889   2.1405   2.2061   2.4500
     2.4524   2.5869   2.6625   2.6845   2.7731   2.8046   2.8828   2.8984
     2.9230   2.9381   2.9753   2.9913   3.0810   3.0923   3.1000   3.2080
     3.2100   3.2621   3.3003   3.3445   3.3505   3.4049   3.4957   3.5178
     3.5856   3.6277   3.6657   3.7213   3.7505   3.7732   3.8421   3.8878
     3.9291   3.9963   4.0651   4.1852   4.2245   4.3120   4.3493   4.3591
     4.3809   4.4293   4.4362   4.5086   4.6106   4.6889   4.7446   4.7683
     4.7761   4.8533   5.0092   5.2092   5.3077   5.9057

          k = 0.1250 0.1250-0.1250 ( 37743 PWs)   bands (ev):

    -5.9236  -5.1587  -5.1587  -5.0711  -4.6371  -4.6371  -4.5580  -4.4265
    -4.4265  -4.3168  -3.9705  -3.9662  -3.9662  -3.9299  -3.9299  -3.9190
    -3.8274  -3.6918  -3.6918  -3.5896  -3.5379  -3.5379  -3.0095  -2.3801
    -2.3801  -2.3577  -2.2046  -2.2040  -2.2040  -2.1486  -2.1486  -1.7177
    -1.4612  -1.4555  -1.4555  -1.4101  -1.4099  -1.4099  -1.3258  -1.3258
    -1.0557  -0.9373  -0.9373  -0.7631  -0.4111  -0.2307  -0.2307   0.0489
     0.2568   0.2571   0.2571   0.3516   0.3516   0.7491   0.8975   0.8975
     1.4084   1.6507   1.6507   1.8378   1.8510   1.8510   1.8657   1.8886
     1.8886   1.9698   1.9778   1.9778   2.2383   2.2727   2.2903   2.2903
     2.3369   2.3369   2.4197   2.4369   2.4369   2.4471   2.5225   2.5642
     2.5642   2.6980   2.6980   2.7587   2.7647   2.7647   2.8895   2.8895
     3.0596   3.1031   3.2249   3.2249   3.6724   3.6724   3.7035   3.7641
     3.8700   3.8700   4.0570   4.1924   4.1924   4.2060   4.2181   4.2198
     4.2198   4.2604   4.2650   4.2650   4.2934   4.2934   4.3079   4.3339
     4.3340   4.4239   4.4239   4.5325   4.6149   4.6149   4.6218   4.7432
     4.7432   4.8018   5.1418   5.4970   5.4970   6.1608

          k = 0.1250 0.3750 0.1250 ( 37741 PWs)   bands (ev):

    -5.7959  -5.5189  -5.0354  -4.9862  -4.7870  -4.7149  -4.5212  -4.4722
    -4.3106  -4.2901  -4.2146  -4.0912  -3.9678  -3.8859  -3.8684  -3.7692
    -3.6705  -3.5675  -3.4644  -3.4046  -3.2696  -3.1739  -3.0694  -2.8819
    -2.7947  -2.6844  -2.5895  -2.4331  -2.3295  -2.3154  -2.2280  -1.8019
    -1.4452  -1.4368  -1.3674  -1.2101  -1.0741  -0.9999  -0.8507  -0.8478
    -0.7684  -0.6978  -0.6614  -0.6357  -0.6107  -0.4866  -0.3449  -0.2880
    -0.2528  -0.1673  -0.1422   0.2665   0.5019   0.7774   0.8029   1.1318
     1.3060   1.4782   1.5215   1.6623   1.6679   1.7297   1.7661   1.8793
     1.8923   1.9731   1.9944   2.0534   2.0889   2.1405   2.2061   2.4499
     2.4524   2.5869   2.6625   2.6845   2.7731   2.8046   2.8828   2.8984
     2.9230   2.9381   2.9753   2.9913   3.0810   3.0923   3.1000   3.2080
     3.2100   3.2621   3.3003   3.3445   3.3505   3.4049   3.4957   3.5178
     3.5856   3.6277   3.6657   3.7213   3.7505   3.7732   3.8421   3.8878
     3.9291   3.9963   4.0651   4.1852   4.2245   4.3120   4.3494   4.3590
     4.3809   4.4293   4.4363   4.5086   4.6106   4.6889   4.7446   4.7683
     4.7761   4.8533   5.0092   5.2092   5.3077   5.9057

          k = 0.1250 0.3750 0.3750 ( 37741 PWs)   bands (ev):

    -5.6686  -5.4252  -5.3676  -5.1228  -4.8884  -4.6756  -4.6098  -4.4159
    -4.3661  -4.1965  -4.1358  -3.9613  -3.8932  -3.8265  -3.6739  -3.6276
    -3.4410  -3.4215  -3.3898  -3.2695  -3.1898  -3.1501  -3.1407  -3.0500
    -2.9933  -2.9542  -2.8952  -2.7389  -2.5380  -2.4270  -2.3643  -1.8393
    -1.3443  -1.2639  -1.1526  -0.9757  -0.9142  -0.9066  -0.8660  -0.8215
    -0.8018  -0.7237  -0.6531  -0.6154  -0.5882  -0.4943  -0.4645  -0.2646
    -0.0107   0.1168   0.1911   0.3170   0.3388   0.4363   0.4372   0.7723
     0.9399   0.9514   1.5083   1.6041   1.7136   1.7419   1.9479   2.0022
     2.0432   2.0939   2.1650   2.2367   2.2648   2.2756   2.3963   2.4226
     2.5048   2.5158   2.6091   2.6193   2.7596   2.8720   2.9160   2.9468
     2.9799   3.0088   3.0438   3.0588   3.1206   3.1471   3.2448   3.2498
     3.2748   3.2931   3.3330   3.3767   3.3773   3.4374   3.4614   3.5035
     3.5381   3.5928   3.7169   3.7254   3.7584   3.7827   3.7835   3.8370
     3.8641   3.9118   3.9626   4.0113   4.0798   4.1226   4.1790   4.1804
     4.2759   4.3052   4.3611   4.4219   4.4900   4.6240   4.7223   4.7933
     4.8678   5.0775   5.0803   5.2333   5.4790   5.8804

          k = 0.1250 0.3750-0.3750 ( 37741 PWs)   bands (ev):

    -5.6686  -5.4252  -5.3675  -5.1228  -4.8884  -4.6756  -4.6098  -4.4159
    -4.3661  -4.1965  -4.1358  -3.9613  -3.8932  -3.8265  -3.6739  -3.6276
    -3.4410  -3.4215  -3.3898  -3.2695  -3.1898  -3.1501  -3.1407  -3.0500
    -2.9933  -2.9542  -2.8952  -2.7389  -2.5379  -2.4270  -2.3643  -1.8392
    -1.3443  -1.2639  -1.1526  -0.9756  -0.9142  -0.9066  -0.8660  -0.8215
    -0.8018  -0.7237  -0.6531  -0.6154  -0.5882  -0.4943  -0.4645  -0.2646
    -0.0107   0.1168   0.1911   0.3170   0.3388   0.4363   0.4372   0.7723
     0.9399   0.9514   1.5083   1.6041   1.7136   1.7419   1.9479   2.0022
     2.0432   2.0939   2.1650   2.2367   2.2648   2.2756   2.3963   2.4226
     2.5048   2.5158   2.6091   2.6193   2.7596   2.8720   2.9160   2.9468
     2.9799   3.0088   3.0438   3.0588   3.1206   3.1471   3.2448   3.2498
     3.2748   3.2931   3.3330   3.3767   3.3773   3.4374   3.4614   3.5035
     3.5381   3.5928   3.7169   3.7254   3.7584   3.7827   3.7835   3.8370
     3.8641   3.9118   3.9626   4.0113   4.0798   4.1226   4.1790   4.1804
     4.2759   4.3052   4.3611   4.4219   4.4900   4.6240   4.7223   4.7933
     4.8678   5.0775   5.0803   5.2333   5.4790   5.8804

          k = 0.1250 0.3750-0.1250 ( 37741 PWs)   bands (ev):

    -5.7959  -5.5189  -5.0354  -4.9862  -4.7870  -4.7149  -4.5212  -4.4722
    -4.3106  -4.2901  -4.2146  -4.0912  -3.9678  -3.8858  -3.8684  -3.7693
    -3.6706  -3.5675  -3.4644  -3.4046  -3.2697  -3.1740  -3.0694  -2.8819
    -2.7947  -2.6844  -2.5895  -2.4331  -2.3294  -2.3154  -2.2281  -1.8018
    -1.4452  -1.4368  -1.3674  -1.2101  -1.0741  -0.9999  -0.8507  -0.8477
    -0.7684  -0.6978  -0.6614  -0.6357  -0.6107  -0.4867  -0.3449  -0.2880
    -0.2528  -0.1673  -0.1422   0.2665   0.5019   0.7773   0.8029   1.1318
     1.3060   1.4782   1.5215   1.6623   1.6679   1.7297   1.7661   1.8793
     1.8923   1.9731   1.9944   2.0534   2.0889   2.1405   2.2061   2.4500
     2.4524   2.5869   2.6625   2.6845   2.7731   2.8046   2.8828   2.8984
     2.9230   2.9381   2.9753   2.9913   3.0810   3.0923   3.1000   3.2080
     3.2100   3.2621   3.3003   3.3445   3.3505   3.4049   3.4957   3.5178
     3.5856   3.6277   3.6657   3.7213   3.7505   3.7732   3.8421   3.8878
     3.9291   3.9963   4.0651   4.1852   4.2245   4.3120   4.3493   4.3591
     4.3809   4.4293   4.4362   4.5086   4.6106   4.6889   4.7446   4.7683
     4.7761   4.8533   5.0092   5.2092   5.3077   5.9057

          k = 0.1250-0.3750 0.1250 ( 37741 PWs)   bands (ev):

    -5.7959  -5.5189  -5.0354  -4.9862  -4.7870  -4.7149  -4.5212  -4.4722
    -4.3106  -4.2901  -4.2146  -4.0912  -3.9678  -3.8859  -3.8684  -3.7692
    -3.6706  -3.5675  -3.4644  -3.4046  -3.2697  -3.1739  -3.0694  -2.8819
    -2.7947  -2.6844  -2.5895  -2.4331  -2.3295  -2.3154  -2.2280  -1.8019
    -1.4452  -1.4368  -1.3674  -1.2101  -1.0741  -0.9999  -0.8507  -0.8478
    -0.7684  -0.6978  -0.6614  -0.6357  -0.6107  -0.4866  -0.3449  -0.2880
    -0.2528  -0.1673  -0.1422   0.2665   0.5019   0.7774   0.8029   1.1318
     1.3060   1.4782   1.5215   1.6623   1.6679   1.7297   1.7661   1.8793
     1.8923   1.9731   1.9944   2.0534   2.0889   2.1405   2.2061   2.4499
     2.4524   2.5869   2.6625   2.6845   2.7731   2.8046   2.8828   2.8984
     2.9230   2.9381   2.9753   2.9913   3.0811   3.0923   3.1000   3.2080
     3.2100   3.2621   3.3003   3.3445   3.3504   3.4049   3.4957   3.5178
     3.5856   3.6277   3.6657   3.7213   3.7505   3.7732   3.8421   3.8878
     3.9292   3.9962   4.0651   4.1852   4.2245   4.3120   4.3494   4.3590
     4.3809   4.4293   4.4363   4.5086   4.6106   4.6888   4.7446   4.7683
     4.7760   4.8533   5.0092   5.2092   5.3077   5.9057

          k = 0.1250-0.3750 0.3750 ( 37741 PWs)   bands (ev):

    -5.6686  -5.4252  -5.3675  -5.1228  -4.8884  -4.6756  -4.6098  -4.4159
    -4.3662  -4.1965  -4.1358  -3.9613  -3.8932  -3.8265  -3.6739  -3.6276
    -3.4410  -3.4215  -3.3898  -3.2695  -3.1898  -3.1501  -3.1407  -3.0500
    -2.9933  -2.9542  -2.8952  -2.7389  -2.5380  -2.4270  -2.3643  -1.8393
    -1.3443  -1.2639  -1.1526  -0.9756  -0.9142  -0.9066  -0.8660  -0.8215
    -0.8018  -0.7237  -0.6531  -0.6154  -0.5882  -0.4943  -0.4645  -0.2646
    -0.0107   0.1168   0.1911   0.3170   0.3388   0.4363   0.4372   0.7723
     0.9399   0.9514   1.5083   1.6041   1.7136   1.7419   1.9479   2.0022
     2.0432   2.0939   2.1650   2.2367   2.2648   2.2756   2.3964   2.4226
     2.5048   2.5158   2.6091   2.6193   2.7596   2.8720   2.9160   2.9468
     2.9799   3.0088   3.0438   3.0588   3.1206   3.1471   3.2448   3.2498
     3.2748   3.2931   3.3330   3.3767   3.3773   3.4374   3.4614   3.5035
     3.5381   3.5928   3.7170   3.7254   3.7584   3.7827   3.7835   3.8370
     3.8641   3.9118   3.9626   4.0113   4.0798   4.1226   4.1790   4.1804
     4.2759   4.3052   4.3611   4.4219   4.4900   4.6240   4.7223   4.7933
     4.8678   5.0775   5.0803   5.2333   5.4790   5.8804

          k = 0.1250-0.3750-0.3750 ( 37741 PWs)   bands (ev):

    -5.6686  -5.4252  -5.3676  -5.1228  -4.8884  -4.6756  -4.6098  -4.4159
    -4.3661  -4.1965  -4.1358  -3.9613  -3.8932  -3.8265  -3.6739  -3.6276
    -3.4410  -3.4215  -3.3898  -3.2695  -3.1898  -3.1501  -3.1407  -3.0500
    -2.9933  -2.9542  -2.8952  -2.7389  -2.5380  -2.4270  -2.3643  -1.8393
    -1.3443  -1.2639  -1.1526  -0.9756  -0.9142  -0.9066  -0.8660  -0.8215
    -0.8018  -0.7237  -0.6531  -0.6154  -0.5882  -0.4943  -0.4645  -0.2646
    -0.0107   0.1168   0.1911   0.3170   0.3388   0.4363   0.4372   0.7723
     0.9399   0.9514   1.5083   1.6041   1.7136   1.7419   1.9479   2.0022
     2.0432   2.0939   2.1650   2.2367   2.2648   2.2756   2.3963   2.4226
     2.5048   2.5158   2.6091   2.6193   2.7596   2.8720   2.9160   2.9468
     2.9799   3.0088   3.0438   3.0588   3.1206   3.1471   3.2448   3.2498
     3.2748   3.2931   3.3330   3.3767   3.3773   3.4374   3.4614   3.5035
     3.5381   3.5928   3.7169   3.7254   3.7584   3.7827   3.7835   3.8370
     3.8641   3.9118   3.9626   4.0113   4.0798   4.1226   4.1790   4.1804
     4.2759   4.3052   4.3611   4.4219   4.4900   4.6240   4.7223   4.7933
     4.8678   5.0775   5.0804   5.2333   5.4790   5.8804

          k = 0.1250-0.3750-0.1250 ( 37741 PWs)   bands (ev):

    -5.7959  -5.5189  -5.0354  -4.9862  -4.7870  -4.7149  -4.5212  -4.4722
    -4.3106  -4.2901  -4.2146  -4.0912  -3.9678  -3.8858  -3.8684  -3.7693
    -3.6706  -3.5675  -3.4644  -3.4046  -3.2697  -3.1740  -3.0694  -2.8819
    -2.7947  -2.6844  -2.5895  -2.4331  -2.3294  -2.3154  -2.2281  -1.8018
    -1.4452  -1.4368  -1.3674  -1.2101  -1.0741  -0.9999  -0.8507  -0.8477
    -0.7684  -0.6978  -0.6615  -0.6357  -0.6107  -0.4867  -0.3449  -0.2880
    -0.2528  -0.1673  -0.1422   0.2665   0.5019   0.7773   0.8029   1.1318
     1.3060   1.4781   1.5215   1.6623   1.6679   1.7297   1.7661   1.8793
     1.8923   1.9731   1.9944   2.0534   2.0889   2.1405   2.2061   2.4500
     2.4524   2.5869   2.6625   2.6845   2.7731   2.8046   2.8828   2.8984
     2.9230   2.9381   2.9753   2.9913   3.0810   3.0923   3.1000   3.2080
     3.2100   3.2621   3.3003   3.3445   3.3505   3.4049   3.4957   3.5178
     3.5856   3.6278   3.6657   3.7213   3.7505   3.7732   3.8421   3.8878
     3.9292   3.9963   4.0651   4.1852   4.2245   4.3120   4.3493   4.3591
     4.3809   4.4293   4.4362   4.5086   4.6106   4.6889   4.7446   4.7683
     4.7761   4.8533   5.0092   5.2092   5.3077   5.9056

          k = 0.1250-0.1250 0.1250 ( 37743 PWs)   bands (ev):

    -5.9236  -5.1587  -5.1587  -5.0711  -4.6371  -4.6371  -4.5579  -4.4265
    -4.4265  -4.3168  -3.9705  -3.9662  -3.9662  -3.9299  -3.9299  -3.9190
    -3.8274  -3.6918  -3.6918  -3.5896  -3.5379  -3.5379  -3.0095  -2.3801
    -2.3801  -2.3577  -2.2046  -2.2040  -2.2040  -2.1486  -2.1486  -1.7177
    -1.4612  -1.4555  -1.4555  -1.4101  -1.4099  -1.4099  -1.3258  -1.3257
    -1.0557  -0.9373  -0.9373  -0.7631  -0.4111  -0.2308  -0.2307   0.0489
     0.2568   0.2571   0.2571   0.3516   0.3516   0.7491   0.8975   0.8975
     1.4084   1.6507   1.6507   1.8378   1.8510   1.8510   1.8657   1.8886
     1.8886   1.9698   1.9778   1.9778   2.2383   2.2727   2.2903   2.2903
     2.3369   2.3369   2.4197   2.4369   2.4369   2.4471   2.5225   2.5642
     2.5642   2.6980   2.6980   2.7587   2.7647   2.7647   2.8895   2.8895
     3.0596   3.1031   3.2249   3.2249   3.6724   3.6724   3.7035   3.7640
     3.8700   3.8700   4.0570   4.1924   4.1924   4.2060   4.2181   4.2198
     4.2198   4.2604   4.2650   4.2650   4.2933   4.2934   4.3078   4.3340
     4.3340   4.4239   4.4239   4.5325   4.6149   4.6149   4.6218   4.7432
     4.7432   4.8018   5.1418   5.4970   5.4970   6.1608

          k = 0.1250-0.1250 0.3750 ( 37741 PWs)   bands (ev):

    -5.7959  -5.5189  -5.0354  -4.9862  -4.7870  -4.7149  -4.5212  -4.4722
    -4.3106  -4.2901  -4.2146  -4.0912  -3.9678  -3.8859  -3.8684  -3.7692
    -3.6706  -3.5675  -3.4644  -3.4046  -3.2697  -3.1739  -3.0694  -2.8819
    -2.7947  -2.6844  -2.5895  -2.4331  -2.3295  -2.3154  -2.2280  -1.8019
    -1.4452  -1.4369  -1.3674  -1.2101  -1.0741  -0.9999  -0.8507  -0.8477
    -0.7684  -0.6978  -0.6615  -0.6357  -0.6107  -0.4866  -0.3449  -0.2880
    -0.2528  -0.1673  -0.1422   0.2665   0.5019   0.7773   0.8029   1.1318
     1.3060   1.4782   1.5215   1.6623   1.6679   1.7297   1.7661   1.8793
     1.8923   1.9731   1.9944   2.0534   2.0889   2.1405   2.2061   2.4499
     2.4524   2.5869   2.6625   2.6845   2.7731   2.8046   2.8828   2.8984
     2.9230   2.9381   2.9753   2.9913   3.0810   3.0923   3.1000   3.2080
     3.2100   3.2621   3.3003   3.3445   3.3504   3.4049   3.4957   3.5178
     3.5857   3.6277   3.6657   3.7213   3.7505   3.7732   3.8421   3.8878
     3.9292   3.9963   4.0651   4.1852   4.2245   4.3120   4.3494   4.3590
     4.3809   4.4293   4.4363   4.5086   4.6106   4.6888   4.7446   4.7683
     4.7760   4.8533   5.0092   5.2092   5.3077   5.9057

          k = 0.1250-0.1250-0.3750 ( 37741 PWs)   bands (ev):

    -5.7959  -5.5189  -5.0354  -4.9862  -4.7870  -4.7149  -4.5212  -4.4722
    -4.3106  -4.2901  -4.2146  -4.0912  -3.9678  -3.8859  -3.8684  -3.7692
    -3.6706  -3.5675  -3.4644  -3.4046  -3.2697  -3.1739  -3.0694  -2.8819
    -2.7947  -2.6844  -2.5895  -2.4331  -2.3295  -2.3154  -2.2280  -1.8019
    -1.4452  -1.4369  -1.3674  -1.2101  -1.0741  -0.9999  -0.8507  -0.8478
    -0.7684  -0.6978  -0.6614  -0.6357  -0.6107  -0.4867  -0.3449  -0.2880
    -0.2528  -0.1673  -0.1422   0.2665   0.5019   0.7774   0.8029   1.1318
     1.3060   1.4782   1.5215   1.6623   1.6679   1.7297   1.7661   1.8793
     1.8923   1.9731   1.9944   2.0534   2.0889   2.1405   2.2061   2.4499
     2.4524   2.5869   2.6625   2.6845   2.7731   2.8046   2.8828   2.8984
     2.9230   2.9381   2.9753   2.9913   3.0810   3.0923   3.1000   3.2080
     3.2100   3.2621   3.3003   3.3445   3.3505   3.4049   3.4957   3.5178
     3.5856   3.6277   3.6657   3.7213   3.7505   3.7732   3.8421   3.8878
     3.9291   3.9963   4.0651   4.1852   4.2245   4.3120   4.3494   4.3590
     4.3809   4.4293   4.4363   4.5086   4.6106   4.6889   4.7446   4.7683
     4.7760   4.8533   5.0092   5.2092   5.3077   5.9056

          k = 0.1250-0.1250-0.1250 ( 37743 PWs)   bands (ev):

    -5.9236  -5.1587  -5.1587  -5.0711  -4.6371  -4.6371  -4.5579  -4.4265
    -4.4265  -4.3168  -3.9705  -3.9662  -3.9662  -3.9299  -3.9299  -3.9190
    -3.8274  -3.6918  -3.6918  -3.5896  -3.5379  -3.5379  -3.0095  -2.3801
    -2.3801  -2.3577  -2.2046  -2.2040  -2.2040  -2.1486  -2.1486  -1.7177
    -1.4612  -1.4555  -1.4555  -1.4101  -1.4099  -1.4099  -1.3258  -1.3257
    -1.0557  -0.9373  -0.9373  -0.7631  -0.4111  -0.2307  -0.2307   0.0489
     0.2568   0.2571   0.2571   0.3516   0.3516   0.7491   0.8975   0.8975
     1.4084   1.6507   1.6507   1.8378   1.8510   1.8510   1.8657   1.8886
     1.8886   1.9698   1.9778   1.9778   2.2383   2.2727   2.2903   2.2903
     2.3369   2.3369   2.4197   2.4369   2.4369   2.4471   2.5225   2.5642
     2.5642   2.6980   2.6980   2.7587   2.7647   2.7647   2.8895   2.8895
     3.0596   3.1031   3.2249   3.2249   3.6724   3.6724   3.7035   3.7641
     3.8700   3.8700   4.0570   4.1924   4.1924   4.2060   4.2181   4.2198
     4.2198   4.2604   4.2650   4.2650   4.2933   4.2934   4.3079   4.3340
     4.3340   4.4239   4.4239   4.5325   4.6149   4.6149   4.6218   4.7432
     4.7432   4.8018   5.1418   5.4970   5.4970   6.1607

          k = 0.3750 0.1250 0.1250 ( 37741 PWs)   bands (ev):

    -5.7959  -5.5189  -5.0354  -4.9862  -4.7869  -4.7149  -4.5212  -4.4722
    -4.3106  -4.2901  -4.2146  -4.0912  -3.9678  -3.8858  -3.8684  -3.7693
    -3.6706  -3.5675  -3.4644  -3.4046  -3.2697  -3.1740  -3.0694  -2.8819
    -2.7947  -2.6844  -2.5895  -2.4331  -2.3294  -2.3154  -2.2281  -1.8019
    -1.4452  -1.4368  -1.3674  -1.2101  -1.0741  -0.9999  -0.8507  -0.8477
    -0.7684  -0.6978  -0.6615  -0.6357  -0.6107  -0.4866  -0.3449  -0.2880
    -0.2528  -0.1673  -0.1422   0.2665   0.5019   0.7773   0.8029   1.1318
     1.3060   1.4781   1.5215   1.6623   1.6679   1.7297   1.7661   1.8793
     1.8923   1.9731   1.9944   2.0534   2.0890   2.1405   2.2061   2.4500
     2.4524   2.5869   2.6624   2.6845   2.7731   2.8046   2.8828   2.8984
     2.9230   2.9381   2.9753   2.9913   3.0810   3.0923   3.1000   3.2080
     3.2100   3.2621   3.3003   3.3445   3.3505   3.4049   3.4957   3.5178
     3.5856   3.6277   3.6657   3.7213   3.7505   3.7732   3.8421   3.8878
     3.9291   3.9963   4.0651   4.1852   4.2245   4.3120   4.3494   4.3591
     4.3809   4.4293   4.4362   4.5086   4.6106   4.6889   4.7446   4.7683
     4.7761   4.8533   5.0092   5.2092   5.3077   5.9057

          k = 0.3750 0.1250 0.3750 ( 37741 PWs)   bands (ev):

    -5.6685  -5.4252  -5.3675  -5.1228  -4.8884  -4.6756  -4.6097  -4.4159
    -4.3661  -4.1965  -4.1358  -3.9613  -3.8932  -3.8265  -3.6739  -3.6276
    -3.4410  -3.4215  -3.3898  -3.2695  -3.1898  -3.1501  -3.1407  -3.0500
    -2.9933  -2.9541  -2.8952  -2.7389  -2.5379  -2.4271  -2.3643  -1.8392
    -1.3443  -1.2639  -1.1526  -0.9756  -0.9142  -0.9066  -0.8660  -0.8215
    -0.8018  -0.7237  -0.6531  -0.6154  -0.5882  -0.4943  -0.4645  -0.2646
    -0.0107   0.1168   0.1911   0.3170   0.3388   0.4363   0.4372   0.7723
     0.9399   0.9514   1.5083   1.6041   1.7136   1.7419   1.9479   2.0022
     2.0432   2.0939   2.1650   2.2367   2.2648   2.2756   2.3963   2.4226
     2.5048   2.5158   2.6091   2.6193   2.7596   2.8720   2.9160   2.9468
     2.9799   3.0088   3.0438   3.0588   3.1206   3.1471   3.2448   3.2498
     3.2748   3.2931   3.3330   3.3767   3.3773   3.4374   3.4614   3.5035
     3.5381   3.5928   3.7170   3.7254   3.7584   3.7827   3.7835   3.8370
     3.8641   3.9118   3.9627   4.0113   4.0798   4.1226   4.1790   4.1804
     4.2759   4.3052   4.3611   4.4219   4.4900   4.6240   4.7223   4.7933
     4.8678   5.0775   5.0803   5.2333   5.4790   5.8804

          k = 0.3750 0.1250-0.3750 ( 37741 PWs)   bands (ev):

    -5.6686  -5.4252  -5.3675  -5.1228  -4.8884  -4.6756  -4.6098  -4.4159
    -4.3661  -4.1965  -4.1358  -3.9613  -3.8932  -3.8265  -3.6739  -3.6276
    -3.4410  -3.4215  -3.3898  -3.2695  -3.1898  -3.1501  -3.1407  -3.0500
    -2.9933  -2.9542  -2.8952  -2.7389  -2.5379  -2.4270  -2.3643  -1.8393
    -1.3443  -1.2639  -1.1526  -0.9756  -0.9142  -0.9067  -0.8660  -0.8215
    -0.8018  -0.7237  -0.6531  -0.6154  -0.5882  -0.4943  -0.4645  -0.2646
    -0.0107   0.1168   0.1911   0.3170   0.3388   0.4363   0.4372   0.7723
     0.9399   0.9514   1.5083   1.6041   1.7136   1.7419   1.9479   2.0022
     2.0432   2.0939   2.1650   2.2367   2.2648   2.2756   2.3963   2.4226
     2.5048   2.5158   2.6091   2.6193   2.7596   2.8720   2.9160   2.9468
     2.9799   3.0088   3.0438   3.0587   3.1206   3.1471   3.2448   3.2498
     3.2748   3.2931   3.3330   3.3767   3.3773   3.4374   3.4614   3.5035
     3.5381   3.5928   3.7169   3.7254   3.7584   3.7827   3.7835   3.8370
     3.8641   3.9118   3.9627   4.0113   4.0798   4.1226   4.1790   4.1804
     4.2759   4.3052   4.3611   4.4219   4.4900   4.6240   4.7223   4.7933
     4.8678   5.0775   5.0803   5.2333   5.4790   5.8804

          k = 0.3750 0.1250-0.1250 ( 37741 PWs)   bands (ev):

    -5.7959  -5.5189  -5.0354  -4.9862  -4.7870  -4.7149  -4.5212  -4.4722
    -4.3106  -4.2901  -4.2146  -4.0912  -3.9678  -3.8858  -3.8684  -3.7693
    -3.6706  -3.5675  -3.4644  -3.4046  -3.2696  -3.1740  -3.0694  -2.8819
    -2.7947  -2.6844  -2.5895  -2.4331  -2.3294  -2.3153  -2.2281  -1.8019
    -1.4452  -1.4368  -1.3674  -1.2101  -1.0741  -0.9999  -0.8507  -0.8477
    -0.7684  -0.6978  -0.6615  -0.6357  -0.6107  -0.4866  -0.3449  -0.2880
    -0.2528  -0.1673  -0.1422   0.2665   0.5019   0.7773   0.8029   1.1318
     1.3060   1.4782   1.5215   1.6623   1.6679   1.7297   1.7661   1.8793
     1.8923   1.9731   1.9944   2.0534   2.0889   2.1405   2.2061   2.4500
     2.4524   2.5869   2.6624   2.6845   2.7731   2.8046   2.8828   2.8984
     2.9230   2.9381   2.9753   2.9913   3.0811   3.0923   3.1000   3.2080
     3.2100   3.2621   3.3003   3.3445   3.3505   3.4049   3.4957   3.5178
     3.5856   3.6277   3.6657   3.7213   3.7505   3.7732   3.8421   3.8878
     3.9291   3.9963   4.0651   4.1852   4.2245   4.3120   4.3494   4.3590
     4.3809   4.4293   4.4362   4.5086   4.6105   4.6889   4.7447   4.7683
     4.7761   4.8533   5.0092   5.2092   5.3077   5.9057

          k = 0.3750 0.3750 0.1250 ( 37741 PWs)   bands (ev):

    -5.6686  -5.4252  -5.3675  -5.1228  -4.8884  -4.6756  -4.6098  -4.4159
    -4.3661  -4.1965  -4.1358  -3.9613  -3.8932  -3.8265  -3.6739  -3.6276
    -3.4410  -3.4215  -3.3898  -3.2695  -3.1898  -3.1501  -3.1407  -3.0500
    -2.9933  -2.9542  -2.8952  -2.7389  -2.5380  -2.4270  -2.3643  -1.8393
    -1.3443  -1.2639  -1.1526  -0.9756  -0.9142  -0.9066  -0.8660  -0.8215
    -0.8018  -0.7237  -0.6531  -0.6154  -0.5882  -0.4943  -0.4645  -0.2646
    -0.0107   0.1168   0.1911   0.3170   0.3388   0.4363   0.4372   0.7723
     0.9399   0.9514   1.5083   1.6041   1.7136   1.7419   1.9479   2.0022
     2.0432   2.0939   2.1650   2.2367   2.2648   2.2756   2.3963   2.4226
     2.5048   2.5158   2.6091   2.6193   2.7596   2.8720   2.9160   2.9468
     2.9799   3.0088   3.0438   3.0587   3.1206   3.1471   3.2448   3.2498
     3.2748   3.2931   3.3330   3.3767   3.3773   3.4374   3.4614   3.5035
     3.5381   3.5928   3.7169   3.7254   3.7584   3.7827   3.7835   3.8370
     3.8641   3.9118   3.9627   4.0113   4.0798   4.1226   4.1790   4.1804
     4.2759   4.3052   4.3611   4.4219   4.4900   4.6240   4.7223   4.7933
     4.8678   5.0775   5.0804   5.2333   5.4790   5.8804

          k = 0.3750 0.3750 0.3750 ( 37779 PWs)   bands (ev):

    -5.5422  -5.2992  -5.2992  -5.2312  -5.0449  -5.0449  -4.9291  -4.6899
    -3.8023  -3.8022  -3.7569  -3.6352  -3.6319  -3.6319  -3.6061  -3.6061
    -3.5819  -3.4936  -3.4936  -3.2775  -3.0948  -3.0948  -3.0925  -3.0557
    -3.0557  -3.0091  -3.0048  -3.0048  -2.9836  -2.9260  -2.9260  -1.8661
    -0.9019  -0.9019  -0.8098  -0.7861  -0.7861  -0.7859  -0.7479  -0.7479
    -0.6875  -0.6367  -0.6349  -0.6349  -0.5389  -0.5389  -0.3179  -0.2553
    -0.2545  -0.2545  -0.1253  -0.1253   0.1453   0.1587   0.1588   0.8735
     1.3426   1.6050   1.6050   1.8930   2.0230   2.0336   2.0336   2.0595
     2.0595   2.0723   2.1424   2.1424   2.1503   2.2429   2.2429   2.3561
     2.3563   2.3563   2.5466   2.6174   2.6349   2.6349   2.7020   2.7020
     2.7300   2.8376   2.8376   2.9272   2.9287   2.9287   3.0602   3.3738
     3.3787   3.3787   3.3907   3.3963   3.3963   3.4883   3.4883   3.4958
     3.6061   3.6651   3.6651   3.6827   3.6880   3.6881   3.7391   3.7391
     3.7643   3.8800   3.8800   3.9654   4.0481   4.3312   4.3312   4.4752
     4.4752   4.5760   4.7788   4.8220   4.8519   4.8519   4.9878   4.9878
     5.0623   5.0623   5.1471   5.2464   5.2465   6.1427

          k = 0.3750 0.3750-0.3750 ( 37779 PWs)   bands (ev):

    -5.5422  -5.2992  -5.2992  -5.2313  -5.0449  -5.0449  -4.9291  -4.6899
    -3.8023  -3.8022  -3.7569  -3.6352  -3.6319  -3.6319  -3.6061  -3.6061
    -3.5820  -3.4936  -3.4936  -3.2775  -3.0948  -3.0948  -3.0925  -3.0557
    -3.0557  -3.0091  -3.0048  -3.0048  -2.9836  -2.9260  -2.9260  -1.8661
    -0.9019  -0.9019  -0.8098  -0.7861  -0.7861  -0.7859  -0.7479  -0.7479
    -0.6875  -0.6367  -0.6349  -0.6349  -0.5389  -0.5389  -0.3179  -0.2553
    -0.2545  -0.2545  -0.1253  -0.1253   0.1453   0.1587   0.1588   0.8735
     1.3426   1.6050   1.6050   1.8930   2.0230   2.0336   2.0336   2.0595
     2.0595   2.0723   2.1424   2.1424   2.1503   2.2429   2.2429   2.3561
     2.3563   2.3563   2.5466   2.6174   2.6349   2.6349   2.7020   2.7020
     2.7300   2.8376   2.8376   2.9272   2.9287   2.9287   3.0602   3.3738
     3.3787   3.3787   3.3907   3.3963   3.3963   3.4883   3.4883   3.4958
     3.6061   3.6651   3.6651   3.6827   3.6881   3.6881   3.7391   3.7391
     3.7643   3.8800   3.8800   3.9654   4.0481   4.3312   4.3312   4.4752
     4.4752   4.5760   4.7788   4.8220   4.8519   4.8519   4.9878   4.9878
     5.0623   5.0623   5.1471   5.2464   5.2465   6.1427

          k = 0.3750 0.3750-0.1250 ( 37741 PWs)   bands (ev):

    -5.6686  -5.4252  -5.3675  -5.1228  -4.8884  -4.6756  -4.6098  -4.4159
    -4.3661  -4.1965  -4.1358  -3.9613  -3.8932  -3.8265  -3.6739  -3.6276
    -3.4410  -3.4215  -3.3898  -3.2695  -3.1898  -3.1501  -3.1407  -3.0500
    -2.9933  -2.9542  -2.8952  -2.7389  -2.5380  -2.4270  -2.3643  -1.8393
    -1.3443  -1.2639  -1.1526  -0.9756  -0.9142  -0.9066  -0.8660  -0.8215
    -0.8018  -0.7237  -0.6531  -0.6154  -0.5882  -0.4943  -0.4645  -0.2646
    -0.0107   0.1168   0.1911   0.3170   0.3388   0.4363   0.4372   0.7723
     0.9399   0.9514   1.5083   1.6041   1.7136   1.7419   1.9479   2.0022
     2.0432   2.0939   2.1650   2.2367   2.2648   2.2756   2.3963   2.4226
     2.5048   2.5158   2.6091   2.6193   2.7596   2.8720   2.9160   2.9468
     2.9799   3.0088   3.0438   3.0587   3.1206   3.1471   3.2448   3.2498
     3.2748   3.2931   3.3330   3.3767   3.3773   3.4374   3.4614   3.5035
     3.5381   3.5928   3.7169   3.7254   3.7584   3.7827   3.7835   3.8370
     3.8641   3.9118   3.9627   4.0113   4.0798   4.1226   4.1790   4.1804
     4.2759   4.3052   4.3611   4.4219   4.4900   4.6240   4.7223   4.7933
     4.8678   5.0775   5.0804   5.2333   5.4790   5.8804

          k = 0.3750-0.3750 0.1250 ( 37741 PWs)   bands (ev):

    -5.6685  -5.4252  -5.3675  -5.1228  -4.8884  -4.6756  -4.6097  -4.4159
    -4.3661  -4.1965  -4.1358  -3.9613  -3.8932  -3.8265  -3.6739  -3.6276
    -3.4410  -3.4215  -3.3898  -3.2695  -3.1898  -3.1501  -3.1407  -3.0500
    -2.9933  -2.9541  -2.8952  -2.7389  -2.5380  -2.4270  -2.3643  -1.8393
    -1.3443  -1.2639  -1.1526  -0.9756  -0.9142  -0.9066  -0.8660  -0.8215
    -0.8018  -0.7237  -0.6531  -0.6154  -0.5882  -0.4943  -0.4645  -0.2646
    -0.0107   0.1168   0.1911   0.3170   0.3388   0.4363   0.4372   0.7723
     0.9399   0.9514   1.5083   1.6041   1.7136   1.7419   1.9479   2.0022
     2.0432   2.0939   2.1650   2.2367   2.2648   2.2756   2.3964   2.4226
     2.5048   2.5158   2.6091   2.6193   2.7596   2.8720   2.9160   2.9468
     2.9799   3.0088   3.0438   3.0588   3.1206   3.1471   3.2448   3.2498
     3.2748   3.2931   3.3330   3.3767   3.3773   3.4374   3.4614   3.5035
     3.5381   3.5928   3.7170   3.7254   3.7584   3.7827   3.7835   3.8370
     3.8641   3.9118   3.9627   4.0113   4.0798   4.1226   4.1790   4.1804
     4.2759   4.3052   4.3611   4.4219   4.4900   4.6240   4.7223   4.7933
     4.8678   5.0775   5.0803   5.2333   5.4790   5.8804

          k = 0.3750-0.3750 0.3750 ( 37779 PWs)   bands (ev):

    -5.5422  -5.2992  -5.2992  -5.2312  -5.0449  -5.0449  -4.9291  -4.6899
    -3.8023  -3.8022  -3.7568  -3.6352  -3.6319  -3.6319  -3.6061  -3.6061
    -3.5819  -3.4936  -3.4936  -3.2775  -3.0948  -3.0948  -3.0925  -3.0557
    -3.0557  -3.0092  -3.0048  -3.0048  -2.9836  -2.9260  -2.9260  -1.8661
    -0.9019  -0.9019  -0.8098  -0.7861  -0.7861  -0.7859  -0.7479  -0.7479
    -0.6875  -0.6367  -0.6349  -0.6349  -0.5389  -0.5389  -0.3179  -0.2553
    -0.2545  -0.2545  -0.1253  -0.1253   0.1453   0.1587   0.1588   0.8735
     1.3426   1.6050   1.6050   1.8930   2.0230   2.0336   2.0336   2.0595
     2.0595   2.0723   2.1424   2.1424   2.1503   2.2429   2.2429   2.3561
     2.3563   2.3563   2.5466   2.6174   2.6349   2.6349   2.7020   2.7020
     2.7299   2.8376   2.8376   2.9272   2.9287   2.9287   3.0602   3.3738
     3.3787   3.3787   3.3907   3.3963   3.3963   3.4883   3.4883   3.4958
     3.6061   3.6651   3.6651   3.6827   3.6881   3.6881   3.7391   3.7391
     3.7643   3.8800   3.8800   3.9654   4.0481   4.3312   4.3312   4.4752
     4.4752   4.5760   4.7788   4.8220   4.8519   4.8519   4.9878   4.9878
     5.0623   5.0623   5.1471   5.2464   5.2465   6.1427

          k = 0.3750-0.3750-0.3750 ( 37779 PWs)   bands (ev):

    -5.5422  -5.2992  -5.2992  -5.2313  -5.0449  -5.0449  -4.9291  -4.6899
    -3.8023  -3.8022  -3.7569  -3.6352  -3.6319  -3.6319  -3.6061  -3.6061
    -3.5819  -3.4936  -3.4936  -3.2775  -3.0948  -3.0948  -3.0925  -3.0557
    -3.0557  -3.0091  -3.0048  -3.0048  -2.9836  -2.9260  -2.9260  -1.8661
    -0.9019  -0.9019  -0.8098  -0.7861  -0.7861  -0.7859  -0.7480  -0.7479
    -0.6875  -0.6367  -0.6349  -0.6349  -0.5389  -0.5389  -0.3179  -0.2553
    -0.2545  -0.2545  -0.1253  -0.1253   0.1453   0.1587   0.1588   0.8735
     1.3426   1.6050   1.6050   1.8930   2.0230   2.0336   2.0336   2.0595
     2.0595   2.0723   2.1424   2.1424   2.1503   2.2429   2.2429   2.3561
     2.3563   2.3563   2.5466   2.6174   2.6349   2.6349   2.7020   2.7020
     2.7300   2.8376   2.8376   2.9272   2.9287   2.9287   3.0602   3.3738
     3.3787   3.3787   3.3907   3.3963   3.3963   3.4883   3.4883   3.4958
     3.6061   3.6651   3.6651   3.6827   3.6880   3.6881   3.7391   3.7391
     3.7643   3.8800   3.8800   3.9654   4.0481   4.3312   4.3312   4.4752
     4.4752   4.5760   4.7788   4.8220   4.8519   4.8519   4.9878   4.9878
     5.0623   5.0623   5.1471   5.2464   5.2464   6.1427

          k = 0.3750-0.3750-0.1250 ( 37741 PWs)   bands (ev):

    -5.6685  -5.4252  -5.3675  -5.1228  -4.8884  -4.6756  -4.6098  -4.4159
    -4.3661  -4.1965  -4.1358  -3.9613  -3.8932  -3.8265  -3.6739  -3.6276
    -3.4410  -3.4215  -3.3898  -3.2695  -3.1898  -3.1501  -3.1407  -3.0500
    -2.9933  -2.9541  -2.8952  -2.7389  -2.5379  -2.4270  -2.3643  -1.8393
    -1.3443  -1.2639  -1.1526  -0.9756  -0.9142  -0.9066  -0.8660  -0.8215
    -0.8018  -0.7237  -0.6531  -0.6154  -0.5882  -0.4943  -0.4645  -0.2646
    -0.0107   0.1168   0.1911   0.3170   0.3388   0.4363   0.4372   0.7723
     0.9399   0.9514   1.5083   1.6041   1.7136   1.7419   1.9479   2.0022
     2.0432   2.0939   2.1650   2.2367   2.2648   2.2756   2.3963   2.4226
     2.5048   2.5158   2.6091   2.6193   2.7596   2.8720   2.9160   2.9468
     2.9799   3.0088   3.0438   3.0588   3.1206   3.1471   3.2448   3.2498
     3.2748   3.2931   3.3330   3.3767   3.3773   3.4374   3.4614   3.5035
     3.5381   3.5928   3.7170   3.7254   3.7584   3.7827   3.7835   3.8370
     3.8641   3.9118   3.9627   4.0113   4.0798   4.1226   4.1790   4.1804
     4.2759   4.3052   4.3611   4.4219   4.4900   4.6240   4.7223   4.7933
     4.8678   5.0775   5.0803   5.2333   5.4790   5.8804

          k = 0.3750-0.1250 0.1250 ( 37741 PWs)   bands (ev):

    -5.7959  -5.5189  -5.0354  -4.9862  -4.7870  -4.7149  -4.5212  -4.4722
    -4.3106  -4.2901  -4.2146  -4.0912  -3.9678  -3.8858  -3.8684  -3.7693
    -3.6706  -3.5675  -3.4644  -3.4046  -3.2697  -3.1740  -3.0694  -2.8819
    -2.7947  -2.6844  -2.5895  -2.4331  -2.3294  -2.3154  -2.2281  -1.8019
    -1.4452  -1.4368  -1.3674  -1.2101  -1.0741  -0.9999  -0.8507  -0.8477
    -0.7684  -0.6978  -0.6615  -0.6357  -0.6107  -0.4866  -0.3449  -0.2880
    -0.2528  -0.1673  -0.1422   0.2665   0.5019   0.7773   0.8029   1.1318
     1.3060   1.4782   1.5215   1.6623   1.6679   1.7297   1.7661   1.8793
     1.8923   1.9731   1.9944   2.0534   2.0889   2.1406   2.2061   2.4500
     2.4524   2.5869   2.6625   2.6845   2.7731   2.8046   2.8828   2.8984
     2.9230   2.9381   2.9753   2.9913   3.0811   3.0923   3.1000   3.2080
     3.2100   3.2621   3.3003   3.3445   3.3505   3.4049   3.4957   3.5178
     3.5857   3.6278   3.6657   3.7213   3.7505   3.7732   3.8421   3.8878
     3.9292   3.9962   4.0651   4.1852   4.2245   4.3120   4.3494   4.3591
     4.3809   4.4293   4.4362   4.5086   4.6106   4.6888   4.7447   4.7683
     4.7761   4.8533   5.0092   5.2092   5.3077   5.9057

          k = 0.3750-0.1250 0.3750 ( 37741 PWs)   bands (ev):

    -5.6685  -5.4252  -5.3675  -5.1228  -4.8884  -4.6756  -4.6097  -4.4159
    -4.3661  -4.1965  -4.1358  -3.9613  -3.8932  -3.8265  -3.6739  -3.6276
    -3.4410  -3.4215  -3.3898  -3.2695  -3.1898  -3.1501  -3.1407  -3.0500
    -2.9933  -2.9541  -2.8952  -2.7389  -2.5380  -2.4271  -2.3643  -1.8393
    -1.3443  -1.2639  -1.1526  -0.9756  -0.9142  -0.9066  -0.8660  -0.8215
    -0.8018  -0.7237  -0.6531  -0.6154  -0.5882  -0.4943  -0.4645  -0.2646
    -0.0107   0.1168   0.1911   0.3170   0.3387   0.4363   0.4372   0.7723
     0.9399   0.9514   1.5083   1.6041   1.7136   1.7419   1.9479   2.0022
     2.0432   2.0939   2.1650   2.2367   2.2648   2.2756   2.3964   2.4226
     2.5048   2.5158   2.6091   2.6193   2.7596   2.8720   2.9160   2.9468
     2.9799   3.0088   3.0438   3.0588   3.1206   3.1471   3.2448   3.2498
     3.2748   3.2931   3.3330   3.3767   3.3773   3.4374   3.4614   3.5035
     3.5381   3.5928   3.7170   3.7254   3.7584   3.7827   3.7835   3.8370
     3.8641   3.9118   3.9627   4.0113   4.0798   4.1226   4.1790   4.1804
     4.2759   4.3052   4.3611   4.4219   4.4900   4.6240   4.7223   4.7933
     4.8678   5.0775   5.0803   5.2333   5.4790   5.8804

          k = 0.3750-0.1250-0.3750 ( 37741 PWs)   bands (ev):

    -5.6686  -5.4252  -5.3675  -5.1228  -4.8884  -4.6756  -4.6098  -4.4159
    -4.3661  -4.1965  -4.1358  -3.9613  -3.8932  -3.8265  -3.6739  -3.6276
    -3.4410  -3.4215  -3.3898  -3.2695  -3.1898  -3.1501  -3.1407  -3.0500
    -2.9933  -2.9542  -2.8952  -2.7389  -2.5380  -2.4270  -2.3643  -1.8393
    -1.3443  -1.2639  -1.1526  -0.9756  -0.9142  -0.9067  -0.8660  -0.8215
    -0.8018  -0.7237  -0.6531  -0.6154  -0.5882  -0.4943  -0.4645  -0.2646
    -0.0107   0.1168   0.1911   0.3170   0.3388   0.4363   0.4372   0.7723
     0.9399   0.9514   1.5083   1.6041   1.7136   1.7419   1.9479   2.0022
     2.0432   2.0939   2.1650   2.2367   2.2648   2.2756   2.3963   2.4226
     2.5048   2.5158   2.6091   2.6193   2.7596   2.8720   2.9160   2.9468
     2.9799   3.0088   3.0438   3.0587   3.1206   3.1471   3.2448   3.2498
     3.2748   3.2931   3.3330   3.3767   3.3773   3.4374   3.4614   3.5035
     3.5381   3.5928   3.7170   3.7254   3.7584   3.7827   3.7835   3.8370
     3.8641   3.9118   3.9627   4.0113   4.0798   4.1226   4.1790   4.1804
     4.2759   4.3052   4.3611   4.4219   4.4900   4.6240   4.7223   4.7933
     4.8678   5.0775   5.0804   5.2333   5.4790   5.8804

          k = 0.3750-0.1250-0.1250 ( 37741 PWs)   bands (ev):

    -5.7959  -5.5189  -5.0354  -4.9862  -4.7869  -4.7149  -4.5212  -4.4722
    -4.3106  -4.2901  -4.2146  -4.0912  -3.9678  -3.8858  -3.8684  -3.7693
    -3.6706  -3.5675  -3.4644  -3.4046  -3.2697  -3.1740  -3.0694  -2.8820
    -2.7947  -2.6844  -2.5895  -2.4331  -2.3294  -2.3154  -2.2281  -1.8019
    -1.4452  -1.4368  -1.3674  -1.2101  -1.0741  -0.9999  -0.8507  -0.8477
    -0.7684  -0.6978  -0.6615  -0.6357  -0.6107  -0.4867  -0.3449  -0.2879
    -0.2528  -0.1673  -0.1422   0.2665   0.5019   0.7773   0.8029   1.1318
     1.3060   1.4781   1.5215   1.6623   1.6679   1.7297   1.7661   1.8793
     1.8923   1.9731   1.9944   2.0534   2.0889   2.1406   2.2061   2.4500
     2.4524   2.5869   2.6625   2.6845   2.7731   2.8046   2.8828   2.8984
     2.9230   2.9381   2.9753   2.9913   3.0811   3.0923   3.1000   3.2080
     3.2100   3.2621   3.3003   3.3445   3.3505   3.4049   3.4957   3.5178
     3.5856   3.6278   3.6657   3.7213   3.7505   3.7732   3.8421   3.8878
     3.9291   3.9963   4.0651   4.1852   4.2245   4.3120   4.3494   4.3591
     4.3809   4.4293   4.4362   4.5086   4.6106   4.6888   4.7446   4.7683
     4.7761   4.8533   5.0092   5.2092   5.3077   5.9056

     highest occupied level (ev):     6.1608

!    total energy              =    -719.18745756 Ry
     Harris-Foulkes estimate   =    -719.18745756 Ry
     estimated scf accuracy    <          9.3E-09 Ry

     The total energy is the sum of the following terms:

     one-electron contribution =     148.08192445 Ry
     hartree contribution      =      38.33574391 Ry
     xc contribution           =    -386.39435083 Ry
     ewald contribution        =    -519.21077509 Ry

     convergence has been achieved in  14 iterations

     Forces acting on atoms (cartesian axes, Ry/au):

     atom    1 type  1   force =     0.00000051   -0.00000009    0.00000038
     atom    2 type  1   force =    -0.00000021   -0.00000002    0.00000045
     atom    3 type  1   force =    -0.00000013    0.00000017   -0.00000015
     atom    4 type  1   force =     0.00000037    0.00000002    0.00000042
     atom    5 type  1   force =     0.00144487    0.00144419   -0.00123368
     atom    6 type  1   force =    -0.00144476    0.00144499    0.00123552
     atom    7 type  1   force =     0.00144399   -0.00144492    0.00123316
     atom    8 type  1   force =    -0.00144420   -0.00144499   -0.00123347
     atom    9 type  1   force =    -0.00037895   -0.00037937   -0.00037922
     atom   10 type  1   force =     0.00386595   -0.00104690   -0.00104664
     atom   11 type  1   force =    -0.00104855    0.00386520   -0.00104699
     atom   12 type  1   force =     0.00024000    0.00023901   -0.00013496
     atom   13 type  1   force =    -0.00023921   -0.00023934   -0.00013606
     atom   14 type  1   force =     0.00104767   -0.00386523   -0.00104599
     atom   15 type  1   force =    -0.00386491    0.00104777   -0.00104786
     atom   16 type  1   force =     0.00037890    0.00037874   -0.00037879
     atom   17 type  1   force =     0.00144398   -0.00123305    0.00144480
     atom   18 type  1   force =    -0.00144432    0.00123422    0.00144533
     atom   19 type  1   force =     0.00657545   -0.00100452    0.00657819
     atom   20 type  1   force =    -0.00657736    0.00100226    0.00657879
     atom   21 type  1   force =    -0.00100158    0.00657808    0.00657810
     atom   22 type  1   force =    -0.00123464    0.00144543    0.00144571
     atom   23 type  1   force =     0.00100522   -0.00657749    0.00657735
     atom   24 type  1   force =     0.00123348   -0.00144557    0.00144546
     atom   25 type  1   force =    -0.00023948   -0.00013515   -0.00023911
     atom   26 type  1   force =     0.00104740   -0.00104651   -0.00386645
     atom   27 type  1   force =     0.00348757   -0.00348834    0.00348842
     atom   28 type  1   force =     0.00013599    0.00023836   -0.00023866
     atom   29 type  1   force =    -0.00348726    0.00348884    0.00348743
     atom   30 type  1   force =    -0.00013729   -0.00023896   -0.00023864
     atom   31 type  1   force =     0.00024040    0.00013514   -0.00023934
     atom   32 type  1   force =    -0.00104851    0.00104683   -0.00386539
     atom   33 type  1   force =    -0.00000022    0.00000010   -0.00000046
     atom   34 type  1   force =     0.00000068    0.00000014   -0.00000029
     atom   35 type  1   force =    -0.00000054   -0.00000053    0.00000030
     atom   36 type  1   force =     0.00657729    0.00657865   -0.00100468
     atom   37 type  1   force =    -0.00657698    0.00657894    0.00100136
     atom   38 type  1   force =     0.00657538   -0.00657833    0.00100443
     atom   39 type  1   force =    -0.00657756   -0.00657847   -0.00100474
     atom   40 type  1   force =    -0.00104784   -0.00104656    0.00386589
     atom   41 type  1   force =     0.00023961   -0.00013595    0.00023765
     atom   42 type  1   force =    -0.00013724    0.00023846    0.00023893
     atom   43 type  1   force =    -0.00348783   -0.00348744   -0.00348910
     atom   44 type  1   force =     0.00348676    0.00348855   -0.00348822
     atom   45 type  1   force =     0.00013722   -0.00023749    0.00023746
     atom   46 type  1   force =    -0.00023944    0.00013589    0.00023963
     atom   47 type  1   force =     0.00104808    0.00104639    0.00386555
     atom   48 type  1   force =     0.00144462    0.00123389   -0.00144431
     atom   49 type  1   force =    -0.00144417   -0.00123476   -0.00144532
     atom   50 type  1   force =     0.00657713    0.00100407   -0.00657845
     atom   51 type  1   force =    -0.00657691   -0.00100381   -0.00657876
     atom   52 type  1   force =     0.00100399    0.00657794   -0.00657780
     atom   53 type  1   force =     0.00123529    0.00144581   -0.00144571
     atom   54 type  1   force =    -0.00100386   -0.00657792   -0.00657794
     atom   55 type  1   force =    -0.00123416   -0.00144565   -0.00144526
     atom   56 type  1   force =    -0.00386681   -0.00104810    0.00104839
     atom   57 type  1   force =     0.00037977   -0.00038051    0.00038055
     atom   58 type  1   force =    -0.00023993    0.00023903    0.00013532
     atom   59 type  1   force =     0.00104804    0.00386688    0.00104732
     atom   60 type  1   force =     0.00023950   -0.00023844    0.00013647
     atom   61 type  1   force =    -0.00104763   -0.00386579    0.00104653
     atom   62 type  1   force =     0.00386620    0.00104687    0.00104768
     atom   63 type  1   force =    -0.00037881    0.00037931    0.00037947

     Total force =     0.038391     Total SCF correction =     0.000162

     BFGS Geometry Optimization

     number of scf cycles    =   1
     number of bfgs steps    =   0

     energy   new            =    -719.1874575586 Ry

     new trust radius        =       0.0093568211 bohr
     new conv_thr            =       0.0000000100 Ry


ATOMIC_POSITIONS (alat)
Si       0.000000025  -0.000000004   0.000000019
Si       0.499999990  -0.000000001   0.000000022
Si      -0.000000006   0.500000008  -0.000000007
Si       0.500000018   0.500000001   0.000000020
Si       0.250069897   0.250069864  -0.000059681
Si       0.749930108   0.250069903   0.000059770
Si       0.250069855   0.749930101   0.000059656
Si       0.749930135   0.749930097  -0.000059670
Si       0.124981668   0.124981648   0.124981655
Si       0.625187019   0.124949355   0.124949368
Si       0.124949275   0.625186983   0.124949351
Si       0.625011610   0.625011562   0.124993471
Si       0.374988428   0.374988422   0.124993418
Si       0.875050682   0.374813015   0.124949399
Si       0.374813031   0.875050687   0.124949309
Si       0.875018330   0.875018322   0.124981676
Si       0.250069854  -0.000059650   0.250069894
Si       0.749930129   0.000059707   0.250069919
Si       0.250318094   0.499951405   0.250318227
Si       0.749681813   0.500048486   0.250318256
Si       0.499951547   0.250318221   0.250318222
Si      -0.000059727   0.250069924   0.250069938
Si       0.500048628   0.749681807   0.250318186
Si       0.000059671   0.749930069   0.250069926
Si       0.374988415   0.124993462   0.374988433
Si       0.875050669   0.124949374   0.374812956
Si       0.375168715   0.624831248   0.375168756
Si       0.875006579   0.625011531   0.374988455
Si       0.624831300   0.375168776   0.375168708
Si       0.124993359   0.374988440   0.374988455
Si       0.625011629   0.875006538   0.374988422
Si       0.124949277   0.875050641   0.374813008
Si      -0.000000011   0.000000005   0.499999978
Si       0.500000033   0.000000007   0.499999986
Si      -0.000000026   0.499999975   0.500000015
Si       0.250318183   0.250318249   0.499951398
Si       0.749681831   0.250318263   0.500048442
Si       0.250318091   0.749681766   0.500048591
Si       0.749681803   0.749681760   0.499951395
Si       0.124949309   0.124949371   0.625187017
Si       0.625011592   0.124993423   0.625011497
Si       0.124993361   0.625011536   0.625011559
Si       0.624831273   0.624831292   0.624831211
Si       0.375168676   0.375168762   0.624831254
Si       0.875006638   0.374988511   0.625011487
Si       0.374988417   0.875006574   0.625011592
Si       0.875050702   0.875050620   0.625187000
Si       0.250069885   0.000059691   0.749930130
Si       0.749930137  -0.000059733   0.749930081
Si       0.250318176   0.500048573   0.749681760
Si       0.749681835   0.499951440   0.749681745
Si       0.500048569   0.250318215   0.749681792
Si       0.000059758   0.250069943   0.749930062
Si       0.499951437   0.749681786   0.749681785
Si      -0.000059704   0.749930065   0.749930084
Si       0.374812939   0.124949297   0.875050717
Si       0.875018372   0.124981593   0.875018410
Si       0.374988393   0.625011564   0.875006546
Si       0.875050700   0.625187064   0.875050665
Si       0.625011586   0.374988465   0.875006602
Si       0.124949320   0.374812988   0.875050627
Si       0.625187032   0.875050644   0.875050683
Si       0.124981674   0.875018349   0.875018357



     Writing output data file si.save
     NEW-OLD atomic charge density approx. for the potential

     Check: negative/imaginary core charge=   -0.000003    0.000000

     total cpu time spent up to now is     1944.2 secs

     per-process dynamical memory:   332.4 Mb

     Self-consistent Calculation

     iteration #  1     ecut=    40.00 Ry     beta=0.70
     Davidson diagonalization with overlap
     ethr =  1.00E-06,  avg # of iterations =  4.0

     Threshold (ethr) on eigenvalues was too large:
     Diagonalizing with lowered threshold

     Davidson diagonalization with overlap
     ethr =  2.18E-08,  avg # of iterations =  6.5

     total cpu time spent up to now is     2221.8 secs

     total energy              =    -719.18868711 Ry
     Harris-Foulkes estimate   =    -719.18873231 Ry
     estimated scf accuracy    <       0.00007504 Ry

     iteration #  2     ecut=    40.00 Ry     beta=0.70
     Davidson diagonalization with overlap
     ethr =  2.98E-08,  avg # of iterations =  5.2

     total cpu time spent up to now is     2378.8 secs

     total energy              =    -719.18865036 Ry
     Harris-Foulkes estimate   =    -719.18877918 Ry
     estimated scf accuracy    <       0.00038972 Ry

     iteration #  3     ecut=    40.00 Ry     beta=0.70
     Davidson diagonalization with overlap
     ethr =  2.98E-08,  avg # of iterations =  5.3

     total cpu time spent up to now is     2523.6 secs

     total energy              =    -719.18871052 Ry
     Harris-Foulkes estimate   =    -719.18872654 Ry
     estimated scf accuracy    <       0.00005062 Ry

     iteration #  4     ecut=    40.00 Ry     beta=0.70
     Davidson diagonalization with overlap
     ethr =  2.01E-08,  avg # of iterations =  3.2

     total cpu time spent up to now is     2634.0 secs

     total energy              =    -719.18871723 Ry
     Harris-Foulkes estimate   =    -719.18872176 Ry
     estimated scf accuracy    <       0.00001284 Ry

     iteration #  5     ecut=    40.00 Ry     beta=0.70
     Davidson diagonalization with overlap
     ethr =  5.10E-09,  avg # of iterations =  3.1

     total cpu time spent up to now is     2750.4 secs

     total energy              =    -719.18871978 Ry
     Harris-Foulkes estimate   =    -719.18872004 Ry
     estimated scf accuracy    <       0.00000056 Ry

     iteration #  6     ecut=    40.00 Ry     beta=0.70
     Davidson diagonalization with overlap
     ethr =  2.24E-10,  avg # of iterations =  5.3

     total cpu time spent up to now is     2893.9 secs

     total energy              =    -719.18871996 Ry
     Harris-Foulkes estimate   =    -719.18872004 Ry
     estimated scf accuracy    <       0.00000020 Ry

     iteration #  7     ecut=    40.00 Ry     beta=0.70
     Davidson diagonalization with overlap
     ethr =  8.00E-11,  avg # of iterations =  7.1

     total cpu time spent up to now is     3022.1 secs

     total energy              =    -719.18871998 Ry
     Harris-Foulkes estimate   =    -719.18872002 Ry
     estimated scf accuracy    <       0.00000015 Ry

     iteration #  8     ecut=    40.00 Ry     beta=0.70
     Davidson diagonalization with overlap
     ethr =  5.94E-11,  avg # of iterations =  6.8

     total cpu time spent up to now is     3137.6 secs

     total energy              =    -719.18872000 Ry
     Harris-Foulkes estimate   =    -719.18872000 Ry
     estimated scf accuracy    <       0.00000001 Ry

     iteration #  9     ecut=    40.00 Ry     beta=0.70
     Davidson diagonalization with overlap
     ethr =  4.51E-12,  avg # of iterations =  5.6

     total cpu time spent up to now is     3283.0 secs

     End of self-consistent calculation

          k = 0.1250 0.1250 0.1250 ( 37743 PWs)   bands (ev):

    -5.9222  -5.1567  -5.1567  -5.0712  -4.6352  -4.6352  -4.5584  -4.4246
    -4.4246  -4.3181  -3.9665  -3.9659  -3.9659  -3.9291  -3.9291  -3.9164
    -3.8281  -3.6917  -3.6917  -3.5902  -3.5365  -3.5365  -3.0167  -2.3789
    -2.3788  -2.3563  -2.2030  -2.2030  -2.2027  -2.1494  -2.1494  -1.7231
    -1.4590  -1.4548  -1.4548  -1.4100  -1.4085  -1.4085  -1.3272  -1.3272
    -1.0572  -0.9373  -0.9373  -0.7631  -0.4073  -0.2306  -0.2306   0.0503
     0.2552   0.2586   0.2586   0.3530   0.3530   0.7520   0.8976   0.8976
     1.4127   1.6489   1.6489   1.8412   1.8521   1.8521   1.8634   1.8874
     1.8874   1.9695   1.9794   1.9794   2.2387   2.2731   2.2912   2.2912
     2.3384   2.3384   2.4230   2.4366   2.4366   2.4469   2.5237   2.5609
     2.5609   2.6967   2.6967   2.7572   2.7676   2.7676   2.8907   2.8907
     3.0600   3.1041   3.2267   3.2267   3.6734   3.6734   3.7006   3.7644
     3.8693   3.8693   4.0553   4.1921   4.1921   4.2053   4.2194   4.2216
     4.2216   4.2601   4.2684   4.2684   4.2955   4.2955   4.3074   4.3313
     4.3313   4.4227   4.4227   4.5324   4.6169   4.6169   4.6206   4.7410
     4.7410   4.8018   5.1393   5.4938   5.4938   6.1646

          k = 0.1250 0.1250 0.3750 ( 37741 PWs)   bands (ev):

    -5.7944  -5.5176  -5.0333  -4.9858  -4.7852  -4.7143  -4.5190  -4.4717
    -4.3106  -4.2882  -4.2132  -4.0907  -3.9673  -3.8836  -3.8682  -3.7699
    -3.6690  -3.5664  -3.4656  -3.4032  -3.2700  -3.1730  -3.0676  -2.8860
    -2.7938  -2.6846  -2.5877  -2.4344  -2.3277  -2.3147  -2.2291  -1.8063
    -1.4438  -1.4359  -1.3679  -1.2094  -1.0747  -1.0006  -0.8512  -0.8471
    -0.7689  -0.6984  -0.6602  -0.6356  -0.6096  -0.4851  -0.3429  -0.2881
    -0.2522  -0.1668  -0.1400   0.2674   0.5046   0.7778   0.8028   1.1331
     1.3052   1.4792   1.5211   1.6638   1.6664   1.7304   1.7672   1.8804
     1.8929   1.9745   1.9962   2.0524   2.0884   2.1409   2.2065   2.4499
     2.4527   2.5873   2.6632   2.6865   2.7731   2.8050   2.8843   2.8992
     2.9221   2.9390   2.9755   2.9936   3.0825   3.0912   3.1011   3.2093
     3.2116   3.2627   3.2996   3.3436   3.3524   3.4031   3.4972   3.5175
     3.5831   3.6286   3.6655   3.7226   3.7503   3.7723   3.8410   3.8906
     3.9297   3.9950   4.0660   4.1844   4.2257   4.3135   4.3479   4.3623
     4.3799   4.4270   4.4340   4.5097   4.6099   4.6892   4.7448   4.7647
     4.7750   4.8520   5.0105   5.2066   5.3053   5.9080

          k = 0.1250 0.1250-0.3750 ( 37741 PWs)   bands (ev):

    -5.7944  -5.5176  -5.0333  -4.9858  -4.7852  -4.7143  -4.5190  -4.4717
    -4.3106  -4.2882  -4.2132  -4.0907  -3.9673  -3.8836  -3.8682  -3.7699
    -3.6690  -3.5664  -3.4656  -3.4032  -3.2700  -3.1730  -3.0676  -2.8860
    -2.7938  -2.6846  -2.5877  -2.4344  -2.3277  -2.3147  -2.2291  -1.8063
    -1.4438  -1.4359  -1.3679  -1.2094  -1.0747  -1.0006  -0.8512  -0.8471
    -0.7689  -0.6984  -0.6602  -0.6356  -0.6096  -0.4851  -0.3429  -0.2881
    -0.2522  -0.1668  -0.1400   0.2674   0.5046   0.7777   0.8028   1.1331
     1.3052   1.4792   1.5211   1.6638   1.6664   1.7304   1.7672   1.8804
     1.8929   1.9745   1.9962   2.0524   2.0884   2.1409   2.2065   2.4499
     2.4527   2.5873   2.6632   2.6865   2.7731   2.8050   2.8843   2.8992
     2.9221   2.9390   2.9755   2.9936   3.0825   3.0912   3.1011   3.2093
     3.2116   3.2627   3.2996   3.3436   3.3524   3.4031   3.4972   3.5175
     3.5831   3.6286   3.6655   3.7226   3.7503   3.7723   3.8410   3.8906
     3.9297   3.9950   4.0660   4.1844   4.2257   4.3135   4.3479   4.3623
     4.3799   4.4270   4.4340   4.5097   4.6099   4.6892   4.7448   4.7647
     4.7750   4.8520   5.0105   5.2066   5.3053   5.9080

          k = 0.1250 0.1250-0.1250 ( 37743 PWs)   bands (ev):

    -5.9222  -5.1567  -5.1567  -5.0712  -4.6352  -4.6352  -4.5584  -4.4246
    -4.4246  -4.3181  -3.9665  -3.9659  -3.9659  -3.9291  -3.9291  -3.9164
    -3.8281  -3.6917  -3.6917  -3.5902  -3.5365  -3.5365  -3.0167  -2.3789
    -2.3788  -2.3563  -2.2030  -2.2030  -2.2027  -2.1494  -2.1494  -1.7231
    -1.4590  -1.4548  -1.4548  -1.4100  -1.4085  -1.4085  -1.3272  -1.3272
    -1.0572  -0.9373  -0.9373  -0.7631  -0.4073  -0.2306  -0.2306   0.0503
     0.2552   0.2586   0.2586   0.3530   0.3530   0.7520   0.8976   0.8976
     1.4127   1.6489   1.6489   1.8412   1.8521   1.8521   1.8634   1.8874
     1.8874   1.9695   1.9794   1.9794   2.2387   2.2731   2.2912   2.2912
     2.3384   2.3384   2.4230   2.4365   2.4366   2.4469   2.5237   2.5609
     2.5609   2.6967   2.6967   2.7572   2.7676   2.7676   2.8907   2.8907
     3.0600   3.1041   3.2267   3.2267   3.6734   3.6734   3.7006   3.7644
     3.8693   3.8693   4.0553   4.1921   4.1921   4.2053   4.2194   4.2216
     4.2216   4.2601   4.2684   4.2684   4.2955   4.2955   4.3074   4.3313
     4.3313   4.4227   4.4227   4.5324   4.6169   4.6169   4.6206   4.7410
     4.7410   4.8018   5.1393   5.4938   5.4938   6.1646

          k = 0.1250 0.3750 0.1250 ( 37741 PWs)   bands (ev):

    -5.7944  -5.5176  -5.0333  -4.9858  -4.7852  -4.7143  -4.5190  -4.4717
    -4.3106  -4.2882  -4.2132  -4.0907  -3.9673  -3.8836  -3.8682  -3.7699
    -3.6690  -3.5664  -3.4656  -3.4032  -3.2700  -3.1730  -3.0676  -2.8860
    -2.7938  -2.6846  -2.5877  -2.4344  -2.3276  -2.3147  -2.2291  -1.8063
    -1.4439  -1.4359  -1.3679  -1.2094  -1.0747  -1.0006  -0.8512  -0.8471
    -0.7689  -0.6984  -0.6602  -0.6356  -0.6096  -0.4851  -0.3429  -0.2881
    -0.2522  -0.1668  -0.1400   0.2674   0.5046   0.7777   0.8028   1.1331
     1.3052   1.4792   1.5211   1.6638   1.6664   1.7304   1.7672   1.8804
     1.8929   1.9745   1.9962   2.0524   2.0884   2.1409   2.2065   2.4499
     2.4527   2.5873   2.6632   2.6865   2.7731   2.8050   2.8843   2.8992
     2.9221   2.9390   2.9755   2.9936   3.0825   3.0912   3.1011   3.2093
     3.2116   3.2627   3.2996   3.3436   3.3524   3.4031   3.4972   3.5175
     3.5831   3.6286   3.6655   3.7226   3.7503   3.7723   3.8410   3.8906
     3.9297   3.9950   4.0660   4.1844   4.2257   4.3135   4.3479   4.3623
     4.3799   4.4270   4.4340   4.5097   4.6099   4.6892   4.7448   4.7647
     4.7750   4.8520   5.0105   5.2066   5.3053   5.9080

          k = 0.1250 0.3750 0.3750 ( 37741 PWs)   bands (ev):

    -5.6670  -5.4232  -5.3666  -5.1221  -4.8869  -4.6739  -4.6090  -4.4160
    -4.3647  -4.1950  -4.1348  -3.9617  -3.8909  -3.8257  -3.6723  -3.6288
    -3.4397  -3.4204  -3.3883  -3.2710  -3.1878  -3.1497  -3.1392  -3.0525
    -2.9909  -2.9549  -2.8963  -2.7366  -2.5382  -2.4280  -2.3654  -1.8441
    -1.3438  -1.2615  -1.1547  -0.9766  -0.9144  -0.9072  -0.8678  -0.8198
    -0.7995  -0.7217  -0.6542  -0.6150  -0.5857  -0.4932  -0.4648  -0.2634
    -0.0090   0.1173   0.1927   0.3177   0.3393   0.4354   0.4395   0.7729
     0.9412   0.9513   1.5086   1.6039   1.7129   1.7441   1.9488   2.0026
     2.0438   2.0945   2.1666   2.2354   2.2637   2.2763   2.3981   2.4236
     2.5057   2.5160   2.6104   2.6195   2.7583   2.8737   2.9171   2.9460
     2.9795   3.0093   3.0459   3.0582   3.1199   3.1481   3.2466   3.2508
     3.2779   3.2921   3.3340   3.3783   3.3785   3.4366   3.4612   3.5008
     3.5393   3.5935   3.7150   3.7270   3.7599   3.7830   3.7841   3.8373
     3.8630   3.9123   3.9650   4.0125   4.0763   4.1231   4.1773   4.1801
     4.2763   4.3052   4.3615   4.4220   4.4905   4.6228   4.7220   4.7907
     4.8675   5.0758   5.0775   5.2318   5.4771   5.8822

          k = 0.1250 0.3750-0.3750 ( 37741 PWs)   bands (ev):

    -5.6670  -5.4232  -5.3666  -5.1221  -4.8869  -4.6739  -4.6090  -4.4160
    -4.3647  -4.1950  -4.1348  -3.9617  -3.8909  -3.8256  -3.6723  -3.6288
    -3.4397  -3.4204  -3.3883  -3.2710  -3.1878  -3.1496  -3.1392  -3.0525
    -2.9909  -2.9549  -2.8963  -2.7366  -2.5382  -2.4280  -2.3654  -1.8441
    -1.3438  -1.2615  -1.1547  -0.9766  -0.9144  -0.9072  -0.8678  -0.8198
    -0.7995  -0.7217  -0.6542  -0.6150  -0.5857  -0.4932  -0.4648  -0.2634
    -0.0090   0.1173   0.1927   0.3177   0.3393   0.4354   0.4395   0.7729
     0.9412   0.9513   1.5086   1.6039   1.7129   1.7441   1.9488   2.0026
     2.0438   2.0945   2.1666   2.2354   2.2637   2.2763   2.3981   2.4236
     2.5057   2.5160   2.6104   2.6195   2.7583   2.8737   2.9171   2.9460
     2.9795   3.0093   3.0459   3.0582   3.1199   3.1481   3.2466   3.2508
     3.2779   3.2921   3.3340   3.3783   3.3785   3.4366   3.4611   3.5008
     3.5393   3.5935   3.7150   3.7270   3.7599   3.7830   3.7841   3.8373
     3.8630   3.9123   3.9650   4.0125   4.0763   4.1231   4.1773   4.1801
     4.2763   4.3052   4.3615   4.4220   4.4905   4.6228   4.7220   4.7907
     4.8675   5.0758   5.0775   5.2318   5.4771   5.8822

          k = 0.1250 0.3750-0.1250 ( 37741 PWs)   bands (ev):

    -5.7944  -5.5176  -5.0333  -4.9858  -4.7852  -4.7143  -4.5190  -4.4717
    -4.3106  -4.2882  -4.2132  -4.0907  -3.9673  -3.8836  -3.8682  -3.7699
    -3.6690  -3.5664  -3.4656  -3.4032  -3.2700  -3.1730  -3.0676  -2.8860
    -2.7938  -2.6846  -2.5877  -2.4344  -2.3276  -2.3147  -2.2291  -1.8063
    -1.4438  -1.4359  -1.3679  -1.2094  -1.0747  -1.0006  -0.8512  -0.8471
    -0.7689  -0.6984  -0.6602  -0.6356  -0.6096  -0.4851  -0.3429  -0.2881
    -0.2522  -0.1668  -0.1400   0.2674   0.5046   0.7777   0.8028   1.1331
     1.3052   1.4792   1.5211   1.6638   1.6664   1.7304   1.7672   1.8804
     1.8929   1.9745   1.9962   2.0524   2.0884   2.1409   2.2065   2.4499
     2.4527   2.5873   2.6632   2.6865   2.7731   2.8050   2.8843   2.8992
     2.9221   2.9390   2.9755   2.9936   3.0825   3.0912   3.1011   3.2093
     3.2116   3.2627   3.2996   3.3436   3.3525   3.4031   3.4972   3.5175
     3.5831   3.6286   3.6655   3.7226   3.7503   3.7723   3.8410   3.8906
     3.9297   3.9950   4.0660   4.1844   4.2257   4.3135   4.3479   4.3623
     4.3799   4.4270   4.4340   4.5097   4.6099   4.6892   4.7448   4.7647
     4.7750   4.8520   5.0105   5.2066   5.3053   5.9080

          k = 0.1250-0.3750 0.1250 ( 37741 PWs)   bands (ev):

    -5.7944  -5.5176  -5.0333  -4.9858  -4.7852  -4.7143  -4.5190  -4.4717
    -4.3106  -4.2882  -4.2132  -4.0907  -3.9673  -3.8836  -3.8682  -3.7699
    -3.6690  -3.5664  -3.4656  -3.4032  -3.2700  -3.1730  -3.0676  -2.8860
    -2.7938  -2.6846  -2.5877  -2.4344  -2.3276  -2.3147  -2.2291  -1.8063
    -1.4439  -1.4359  -1.3679  -1.2094  -1.0747  -1.0006  -0.8512  -0.8471
    -0.7689  -0.6984  -0.6602  -0.6356  -0.6096  -0.4851  -0.3429  -0.2881
    -0.2522  -0.1668  -0.1400   0.2674   0.5046   0.7777   0.8028   1.1331
     1.3052   1.4792   1.5211   1.6638   1.6664   1.7304   1.7672   1.8804
     1.8929   1.9745   1.9962   2.0524   2.0884   2.1409   2.2065   2.4499
     2.4527   2.5873   2.6632   2.6865   2.7731   2.8050   2.8843   2.8992
     2.9221   2.9390   2.9755   2.9936   3.0825   3.0912   3.1011   3.2093
     3.2116   3.2627   3.2996   3.3436   3.3524   3.4031   3.4972   3.5175
     3.5831   3.6286   3.6655   3.7226   3.7503   3.7723   3.8410   3.8906
[...]
    -3.7591  -3.7591  -3.7372  -3.6020  -3.6020  -3.5875  -3.5729  -3.5729
    -3.5515  -3.4684  -3.4684  -3.2719  -3.0630  -3.0630  -3.0547  -3.0134
    -3.0134  -2.9769  -2.9742  -2.9742  -2.9639  -2.9052  -2.9052  -1.9802
    -0.8770  -0.8770  -0.8136  -0.7602  -0.7520  -0.7520  -0.7208  -0.7208
    -0.6540  -0.6086  -0.6086  -0.5979  -0.5248  -0.5248  -0.3118  -0.2278
    -0.2192  -0.2192  -0.1237  -0.1237   0.1516   0.1857   0.1857   0.8812
     1.2976   1.6271   1.6271   1.8668   2.0540   2.0540   2.0819   2.0822
     2.0822   2.0921   2.1625   2.1625   2.1817   2.2682   2.2682   2.3633
     2.3739   2.3739   2.5472   2.6564   2.6564   2.6675   2.7259   2.7259
     2.7461   2.8608   2.8608   2.9288   2.9288   2.9495   3.0493   3.3863
     3.3890   3.3890   3.4282   3.4282   3.4519   3.5139   3.5398   3.5398
     3.6266   3.6801   3.6801   3.7191   3.7191   3.7246   3.7528   3.7528
     3.8079   3.9068   3.9232   3.9232   3.9862   4.3280   4.3393   4.3393
     4.5008   4.5008   4.7498   4.8524   4.8883   4.8883   5.0109   5.0109
     5.0739   5.0739   5.1860   5.2770   5.2770   6.0317

          k = 0.3750-0.3750-0.3750 ( 37779 PWs)   bands (ev):

    -5.5023  -5.2562  -5.2562  -5.2080  -5.0047  -5.0047  -4.9051  -4.6903
    -3.7591  -3.7591  -3.7372  -3.6020  -3.6020  -3.5875  -3.5729  -3.5729
    -3.5515  -3.4684  -3.4684  -3.2719  -3.0630  -3.0630  -3.0547  -3.0134
    -3.0134  -2.9769  -2.9742  -2.9742  -2.9639  -2.9052  -2.9052  -1.9802
    -0.8770  -0.8770  -0.8136  -0.7602  -0.7520  -0.7520  -0.7208  -0.7208
    -0.6540  -0.6086  -0.6086  -0.5979  -0.5248  -0.5248  -0.3118  -0.2278
    -0.2192  -0.2192  -0.1237  -0.1237   0.1516   0.1857   0.1857   0.8812
     1.2976   1.6271   1.6271   1.8668   2.0540   2.0540   2.0819   2.0822
     2.0822   2.0921   2.1625   2.1625   2.1817   2.2682   2.2682   2.3633
     2.3739   2.3739   2.5472   2.6564   2.6564   2.6675   2.7259   2.7259
     2.7461   2.8608   2.8608   2.9288   2.9288   2.9495   3.0493   3.3863
     3.3890   3.3890   3.4282   3.4282   3.4519   3.5139   3.5398   3.5398
     3.6266   3.6801   3.6801   3.7191   3.7191   3.7246   3.7528   3.7528
     3.8079   3.9068   3.9232   3.9232   3.9862   4.3280   4.3393   4.3393
     4.5008   4.5008   4.7498   4.8524   4.8883   4.8883   5.0109   5.0109
     5.0739   5.0739   5.1860   5.2770   5.2770   6.0317

          k = 0.3750-0.3750-0.1250 ( 37741 PWs)   bands (ev):

    -5.6295  -5.3827  -5.3378  -5.0958  -4.8510  -4.6357  -4.5833  -4.3938
    -4.3330  -4.1579  -4.1071  -3.9433  -3.8488  -3.7992  -3.6444  -3.6057
    -3.4104  -3.3893  -3.3513  -3.2561  -3.1490  -3.1171  -3.1091  -3.0362
    -2.9517  -2.9283  -2.8700  -2.7069  -2.5238  -2.4030  -2.3408  -1.8946
    -1.3206  -1.2249  -1.1384  -0.9486  -0.8849  -0.8839  -0.8581  -0.8026
    -0.7916  -0.7025  -0.6314  -0.5763  -0.5637  -0.4812  -0.4437  -0.2478
    -0.0100   0.1404   0.2197   0.3322   0.3590   0.4541   0.4559   0.7875
     0.9574   0.9678   1.5072   1.6186   1.7223   1.7775   1.9585   2.0209
     2.0392   2.0935   2.2060   2.2359   2.2914   2.3028   2.4183   2.4510
     2.5238   2.5364   2.6291   2.6292   2.7249   2.9082   2.9330   2.9728
     2.9933   3.0396   3.0729   3.0787   3.1363   3.1691   3.2690   3.2838
     3.3174   3.3276   3.3539   3.3970   3.4059   3.4451   3.4895   3.5003
     3.5495   3.5963   3.7227   3.7686   3.7876   3.8074   3.8104   3.8686
     3.8780   3.9463   4.0043   4.0395   4.0703   4.1511   4.1722   4.2198
     4.3080   4.3338   4.3877   4.4323   4.5221   4.5332   4.6637   4.7491
     4.8916   5.0040   5.0616   5.2539   5.5038   5.7658

          k = 0.3750-0.1250 0.1250 ( 37741 PWs)   bands (ev):

    -5.7579  -5.4847  -4.9924  -4.9599  -4.7470  -4.6907  -4.4773  -4.4456
    -4.2844  -4.2492  -4.1829  -4.0682  -3.9387  -3.8534  -3.8362  -3.7463
    -3.6421  -3.5350  -3.4431  -3.3665  -3.2464  -3.1468  -3.0302  -2.8876
    -2.7600  -2.6633  -2.5506  -2.4221  -2.2967  -2.2832  -2.2058  -1.8372
    -1.4133  -1.4071  -1.3443  -1.1908  -1.0465  -0.9709  -0.8497  -0.8161
    -0.7521  -0.6813  -0.6419  -0.6113  -0.5855  -0.4667  -0.3209  -0.2578
    -0.2248  -0.1648  -0.1333   0.2705   0.5023   0.7746   0.8329   1.1208
     1.3339   1.4972   1.5465   1.6790   1.7033   1.7562   1.7771   1.9027
     1.9122   1.9922   2.0367   2.0511   2.1021   2.1497   2.2280   2.4569
     2.4739   2.6081   2.6909   2.7233   2.7666   2.8315   2.8961   2.9226
     2.9302   2.9668   3.0031   3.0290   3.0771   3.1004   3.1316   3.2153
     3.2546   3.2903   3.3026   3.3512   3.3871   3.4205   3.5180   3.5235
     3.5672   3.6663   3.6910   3.7624   3.7801   3.8020   3.8403   3.9080
     3.9374   4.0066   4.0671   4.2061   4.2081   4.2979   4.3497   4.3994
     4.4030   4.4571   4.4583   4.5329   4.6387   4.6876   4.7489   4.7816
     4.8017   4.8833   4.8889   5.2223   5.3055   5.8004

          k = 0.3750-0.1250 0.3750 ( 37741 PWs)   bands (ev):

    -5.6295  -5.3827  -5.3378  -5.0958  -4.8510  -4.6357  -4.5833  -4.3938
    -4.3330  -4.1579  -4.1071  -3.9433  -3.8488  -3.7992  -3.6444  -3.6057
    -3.4104  -3.3893  -3.3513  -3.2561  -3.1490  -3.1171  -3.1091  -3.0362
    -2.9517  -2.9283  -2.8700  -2.7069  -2.5238  -2.4030  -2.3408  -1.8946
    -1.3206  -1.2249  -1.1384  -0.9486  -0.8849  -0.8839  -0.8581  -0.8026
    -0.7916  -0.7025  -0.6314  -0.5763  -0.5637  -0.4812  -0.4437  -0.2478
    -0.0100   0.1404   0.2197   0.3322   0.3590   0.4541   0.4559   0.7875
     0.9574   0.9678   1.5072   1.6186   1.7223   1.7775   1.9585   2.0209
     2.0392   2.0935   2.2060   2.2359   2.2914   2.3028   2.4183   2.4510
     2.5238   2.5364   2.6291   2.6292   2.7249   2.9082   2.9330   2.9728
     2.9933   3.0396   3.0729   3.0787   3.1363   3.1691   3.2690   3.2838
     3.3174   3.3276   3.3539   3.3970   3.4059   3.4451   3.4895   3.5003
     3.5495   3.5963   3.7227   3.7686   3.7876   3.8074   3.8104   3.8686
     3.8780   3.9463   4.0043   4.0395   4.0703   4.1511   4.1722   4.2198
     4.3080   4.3338   4.3877   4.4323   4.5221   4.5332   4.6637   4.7491
     4.8916   5.0040   5.0616   5.2539   5.5038   5.7658

          k = 0.3750-0.1250-0.3750 ( 37741 PWs)   bands (ev):

    -5.6295  -5.3827  -5.3378  -5.0958  -4.8510  -4.6357  -4.5833  -4.3938
    -4.3330  -4.1579  -4.1071  -3.9433  -3.8488  -3.7992  -3.6444  -3.6057
    -3.4104  -3.3893  -3.3513  -3.2561  -3.1490  -3.1171  -3.1091  -3.0362
    -2.9517  -2.9283  -2.8700  -2.7069  -2.5238  -2.4030  -2.3408  -1.8946
    -1.3206  -1.2249  -1.1384  -0.9486  -0.8849  -0.8839  -0.8581  -0.8026
    -0.7916  -0.7025  -0.6314  -0.5763  -0.5637  -0.4812  -0.4437  -0.2478
    -0.0100   0.1404   0.2197   0.3322   0.3590   0.4541   0.4559   0.7875
     0.9574   0.9678   1.5072   1.6186   1.7223   1.7775   1.9585   2.0209
     2.0392   2.0935   2.2060   2.2359   2.2914   2.3028   2.4183   2.4510
     2.5238   2.5364   2.6291   2.6292   2.7249   2.9082   2.9330   2.9728
     2.9933   3.0396   3.0729   3.0787   3.1363   3.1691   3.2690   3.2838
     3.3174   3.3276   3.3539   3.3970   3.4059   3.4451   3.4895   3.5003
     3.5495   3.5963   3.7227   3.7686   3.7876   3.8074   3.8104   3.8686
     3.8780   3.9463   4.0043   4.0395   4.0703   4.1511   4.1722   4.2198
     4.3080   4.3338   4.3877   4.4323   4.5221   4.5332   4.6637   4.7491
     4.8916   5.0040   5.0616   5.2539   5.5038   5.7658

          k = 0.3750-0.1250-0.1250 ( 37741 PWs)   bands (ev):

    -5.7579  -5.4847  -4.9924  -4.9599  -4.7470  -4.6907  -4.4773  -4.4456
    -4.2844  -4.2492  -4.1829  -4.0682  -3.9387  -3.8534  -3.8362  -3.7463
    -3.6421  -3.5350  -3.4431  -3.3665  -3.2464  -3.1468  -3.0302  -2.8876
    -2.7600  -2.6633  -2.5506  -2.4221  -2.2967  -2.2832  -2.2058  -1.8372
    -1.4133  -1.4071  -1.3443  -1.1908  -1.0465  -0.9709  -0.8497  -0.8161
    -0.7521  -0.6813  -0.6419  -0.6113  -0.5855  -0.4667  -0.3209  -0.2578
    -0.2248  -0.1648  -0.1333   0.2705   0.5023   0.7746   0.8329   1.1208
     1.3339   1.4972   1.5465   1.6790   1.7033   1.7562   1.7771   1.9027
     1.9122   1.9922   2.0367   2.0511   2.1021   2.1497   2.2280   2.4569
     2.4739   2.6081   2.6909   2.7233   2.7666   2.8315   2.8961   2.9226
     2.9302   2.9668   3.0031   3.0290   3.0771   3.1004   3.1316   3.2153
     3.2546   3.2903   3.3026   3.3512   3.3871   3.4205   3.5180   3.5235
     3.5672   3.6663   3.6910   3.7624   3.7801   3.8020   3.8403   3.9080
     3.9374   4.0066   4.0671   4.2061   4.2080   4.2979   4.3497   4.3994
     4.4030   4.4571   4.4583   4.5329   4.6387   4.6876   4.7489   4.7816
     4.8017   4.8833   4.8889   5.2223   5.3055   5.8004

     highest occupied level (ev):     6.0464

!    total energy              =    -719.19598054 Ry
     Harris-Foulkes estimate   =    -719.19598054 Ry
     estimated scf accuracy    <          7.1E-11 Ry

     The total energy is the sum of the following terms:

     one-electron contribution =     151.86211643 Ry
     hartree contribution      =      36.49587165 Ry
     xc contribution           =    -386.20443417 Ry
     ewald contribution        =    -521.34953444 Ry

     convergence has been achieved in   6 iterations

     Forces acting on atoms (cartesian axes, Ry/au):

     atom    1 type  1   force =     0.00000001    0.00000009   -0.00000007
     atom    2 type  1   force =    -0.00000003   -0.00000002   -0.00000003
     atom    3 type  1   force =     0.00000002   -0.00000001    0.00000003
     atom    4 type  1   force =    -0.00000004   -0.00000005    0.00000007
     atom    5 type  1   force =     0.00000119    0.00000118   -0.00000792
     atom    6 type  1   force =    -0.00000120    0.00000111    0.00000799
     atom    7 type  1   force =     0.00000115   -0.00000114    0.00000798
     atom    8 type  1   force =    -0.00000119   -0.00000116   -0.00000803
     atom    9 type  1   force =    -0.00000595   -0.00000593   -0.00000596
     atom   10 type  1   force =    -0.00000325   -0.00000118   -0.00000120
     atom   11 type  1   force =    -0.00000115   -0.00000317   -0.00000119
     atom   12 type  1   force =     0.00000302    0.00000312    0.00000075
     atom   13 type  1   force =    -0.00000315   -0.00000306    0.00000078
     atom   14 type  1   force =     0.00000116    0.00000313   -0.00000115
     atom   15 type  1   force =     0.00000319    0.00000124   -0.00000123
     atom   16 type  1   force =     0.00000597    0.00000600   -0.00000602
     atom   17 type  1   force =     0.00000120   -0.00000796    0.00000114
     atom   18 type  1   force =    -0.00000122    0.00000810    0.00000113
     atom   19 type  1   force =     0.00000659   -0.00000627    0.00000649
     atom   20 type  1   force =    -0.00000655    0.00000619    0.00000645
     atom   21 type  1   force =    -0.00000621    0.00000642    0.00000645
     atom   22 type  1   force =    -0.00000806    0.00000119    0.00000121
     atom   23 type  1   force =     0.00000621   -0.00000644    0.00000642
     atom   24 type  1   force =     0.00000811   -0.00000114    0.00000115
     atom   25 type  1   force =    -0.00000312    0.00000069   -0.00000312
     atom   26 type  1   force =     0.00000116   -0.00000112    0.00000314
     atom   27 type  1   force =     0.00000009    0.00000009   -0.00000010
     atom   28 type  1   force =    -0.00000060    0.00000309   -0.00000316
     atom   29 type  1   force =     0.00000006   -0.00000020   -0.00000018
     atom   30 type  1   force =     0.00000069   -0.00000304   -0.00000316
     atom   31 type  1   force =     0.00000298   -0.00000068   -0.00000319
     atom   32 type  1   force =    -0.00000114    0.00000121    0.00000314
     atom   33 type  1   force =     0.00000003   -0.00000001    0.00000004
     atom   34 type  1   force =    -0.00000004   -0.00000001   -0.00000002
     atom   35 type  1   force =     0.00000001   -0.00000002   -0.00000003
     atom   36 type  1   force =     0.00000650    0.00000649   -0.00000623
     atom   37 type  1   force =    -0.00000649    0.00000640    0.00000626
     atom   38 type  1   force =     0.00000657   -0.00000648    0.00000627
     atom   39 type  1   force =    -0.00000649   -0.00000641   -0.00000636
     atom   40 type  1   force =    -0.00000119   -0.00000117   -0.00000317
     atom   41 type  1   force =     0.00000311    0.00000065    0.00000315
     atom   42 type  1   force =     0.00000068    0.00000316    0.00000304
     atom   43 type  1   force =     0.00000019    0.00000028    0.00000032
     atom   44 type  1   force =     0.00000004   -0.00000010    0.00000013
     atom   45 type  1   force =    -0.00000055   -0.00000319    0.00000308
     atom   46 type  1   force =    -0.00000321   -0.00000071    0.00000304
     atom   47 type  1   force =     0.00000117    0.00000120   -0.00000314
     atom   48 type  1   force =     0.00000116    0.00000795   -0.00000119
     atom   49 type  1   force =    -0.00000118   -0.00000794   -0.00000113
     atom   50 type  1   force =     0.00000645    0.00000620   -0.00000645
     atom   51 type  1   force =    -0.00000641   -0.00000641   -0.00000635
     atom   52 type  1   force =     0.00000615    0.00000634   -0.00000642
     atom   53 type  1   force =     0.00000799    0.00000112   -0.00000119
     atom   54 type  1   force =    -0.00000631   -0.00000634   -0.00000642
     atom   55 type  1   force =    -0.00000799   -0.00000115   -0.00000121
     atom   56 type  1   force =     0.00000319   -0.00000121    0.00000118
     atom   57 type  1   force =     0.00000596   -0.00000593    0.00000595
     atom   58 type  1   force =    -0.00000317    0.00000309   -0.00000064
     atom   59 type  1   force =     0.00000120   -0.00000321    0.00000115
     atom   60 type  1   force =     0.00000309   -0.00000323   -0.00000062
     atom   61 type  1   force =    -0.00000121    0.00000318    0.00000117
     atom   62 type  1   force =    -0.00000321    0.00000121    0.00000115
     atom   63 type  1   force =    -0.00000598    0.00000597    0.00000597

     Total force =     0.000056     Total SCF correction =     0.000017
     SCF correction compared to forces is large: reduce conv_thr to get better values

     bfgs converged in  20 scf cycles and  19 bfgs steps
     (criteria: energy <  1.0E-06 Ry, force <  1.0E-05 Ry/Bohr)

     End of BFGS Geometry Optimization

     Final energy   =    -719.1959805387 Ry
Begin final coordinates

ATOMIC_POSITIONS (alat)
Si       0.000000017  -0.000000033   0.000000024
Si       0.500000039  -0.000000011   0.000000018
Si      -0.000000045   0.500000026  -0.000000065
Si       0.500000042   0.500000031  -0.000000019
Si       0.250372509   0.250372481  -0.000140132
Si       0.749627544   0.250372520   0.000140064
Si       0.250372539   0.749627504   0.000140111
Si       0.749627511   0.749627539  -0.000140086
Si       0.125050773   0.125050704   0.125050717
Si       0.625071058   0.126079823   0.126079823
Si       0.126079730   0.625071015   0.126079735
Si       0.624821191   0.624821142   0.125551716
Si       0.375178883   0.375178860   0.125551665
Si       0.873920262   0.374929003   0.126079748
Si       0.374929044   0.873920172   0.126079846
Si       0.874949282   0.874949252   0.125050762
Si       0.250372517  -0.000140123   0.250372514
Si       0.749627527   0.000140068   0.250372524
Si       0.253281268   0.500311363   0.253281332
Si       0.746718701   0.499688599   0.253281397
Si       0.500311474   0.253281507   0.253281485
Si      -0.000140094   0.250372452   0.250372449
Si       0.499688610   0.746718544   0.253281511
Si       0.000140092   0.749627490   0.250372522
Si       0.375178898   0.125551694   0.375178862
Si       0.873920228   0.126079782   0.374928999
Si       0.382848008   0.617151757   0.382848265
Si       0.874448331   0.624821162   0.375178911
Si       0.617151792   0.382848473   0.382848420
Si       0.125551611   0.375178814   0.375178867
Si       0.624821222   0.874448265   0.375178947
Si       0.126079744   0.873920234   0.374929011
Si      -0.000000045  -0.000000011   0.500000013
Si       0.500000048   0.000000004   0.500000027
Si      -0.000000006   0.499999998   0.500000039
Si       0.253281326   0.253281335   0.500311390
Si       0.746718672   0.253281458   0.499688575
Si       0.253281291   0.746718668   0.499688664
Si       0.746718575   0.746718491   0.500311528
Si       0.126079748   0.126079746   0.625071033
Si       0.624821212   0.125551743   0.624821125
Si       0.125551621   0.624821160   0.624821211
Si       0.617151398   0.617151259   0.617151215
Si       0.382848093   0.382848272   0.617151747
Si       0.874448310   0.375178895   0.624821204
Si       0.375178904   0.874448303   0.624821182
Si       0.873920199   0.873920195   0.625071024
Si       0.250372530   0.000140122   0.749627532
Si       0.749627531  -0.000140088   0.749627514
Si       0.253281342   0.499688632   0.746718663
Si       0.746718544   0.500311565   0.746718465
Si       0.499688650   0.253281497   0.746718553
Si       0.000140095   0.250372493   0.749627524
Si       0.500311539   0.746718436   0.746718413
Si      -0.000140109   0.749627559   0.749627561
Si       0.374929064   0.126079822   0.873920190
Si       0.874949300   0.125050713   0.874949284
Si       0.375178913   0.624821183   0.874448270
Si       0.873920165   0.625071046   0.873920183
Si       0.624821234   0.375178955   0.874448254
Si       0.126079761   0.374928989   0.873920231
Si       0.625071006   0.873920166   0.873920152
Si       0.125050780   0.874949280   0.874949288
End final coordinates



     Writing output data file si.save
 
     init_run     :     62.28s CPU     62.65s WALL (       1 calls)
     electrons    :  24061.34s CPU  24217.41s WALL (      20 calls)
     update_pot   :      3.24s CPU      3.38s WALL (      19 calls)
     forces       :    584.75s CPU    587.97s WALL (      20 calls)

     Called by init_run:
     wfcinit      :     61.85s CPU     62.15s WALL (       1 calls)
     potinit      :      0.06s CPU      0.07s WALL (       1 calls)

     Called by electrons:
     c_bands      :  21938.34s CPU  22081.05s WALL (     187 calls)
     sum_band     :   2091.39s CPU   2101.80s WALL (     187 calls)
     v_of_rho     :      8.70s CPU      8.70s WALL (     189 calls)
     newd         :     23.69s CPU     26.79s WALL (     189 calls)
     mix_rho      :      1.53s CPU      1.52s WALL (     187 calls)

     Called by c_bands:
     init_us_2    :    266.91s CPU    267.44s WALL (   12640 calls)
     cegterg      :  20594.56s CPU  20731.09s WALL (    5984 calls)

     Called by sum_band:
     sum_band:bec :      9.94s CPU      9.90s WALL (    5984 calls)
     addusdens    :     22.81s CPU     26.00s WALL (     187 calls)

     Called by *egterg:
     h_psi        :  11569.68s CPU  11604.24s WALL (   33189 calls)
     s_psi        :   3657.06s CPU   3662.27s WALL (   33189 calls)
     g_psi        :     54.57s CPU     54.90s WALL (   27173 calls)
     cdiaghg      :   2070.19s CPU   2073.28s WALL (   31973 calls)

     Called by h_psi:
     h_psi:pot    :  11496.21s CPU  11530.48s WALL (   33189 calls)
     h_psi:calbec :   3521.22s CPU   3534.89s WALL (   33189 calls)
     vloc_psi     :   4307.98s CPU   4323.21s WALL (   33189 calls)
     add_vuspsi   :   3666.74s CPU   3672.19s WALL (   33189 calls)

     General routines
     calbec       :   5123.13s CPU   5142.88s WALL (   41733 calls)
     fft          :      4.69s CPU      4.90s WALL (    2730 calls)
     fftw         :   4563.31s CPU   4579.26s WALL ( 5213810 calls)
     davcio       :      0.13s CPU     26.51s WALL (      32 calls)
 
     Parallel routines
     fft_scatter  :    906.95s CPU    911.14s WALL ( 5216540 calls)
 
     PWSCF        :     6h51m CPU        6h55m WALL

 
   This run was terminated on:  21: 8:10  30Jul2019            

=------------------------------------------------------------------------------=
   JOB DONE.
=------------------------------------------------------------------------------=
