
     Program PWSCF v.6.1 (svn rev. 13369) starts on 12Jul2019 at 22:15:28 

     This program is part of the open-source Quantum ESPRESSO suite
     for quantum simulation of materials; please cite
         "P. Giannozzi et al., J. Phys.:Condens. Matter 21 395502 (2009);
          URL http://www.quantum-espresso.org", 
     in publications or presentations arising from this work. More details at
     http://www.quantum-espresso.org/quote

     Parallel version (MPI), running on    12 processors
     R & G space division:  proc/nbgrp/npool/nimage =      12
     Reading input from si100.2_slab_relax.in

     Current dimensions of program PWSCF are:
     Max number of different atomic species (ntypx) = 10
     Max number of k-points (npk) =  40000
     Max angular momentum in pseudopotentials (lmaxx) =  3

     Subspace diagonalization in iterative solution of the eigenvalue problem:
     a serial algorithm will be used

 
     Parallelization info
     --------------------
     sticks:   dense  smooth     PW     G-vecs:    dense   smooth      PW
     Min         338     338     92                34647    34647    4920
     Max         340     340     93                34651    34651    4927
     Sum        4067    4067   1111               415795   415795   59085
 


     bravais-lattice index     =            8
     lattice parameter (alat)  =      29.2337  a.u.
     unit-cell volume          =   18737.6348 (a.u.)^3
     number of atoms/cell      =           56
     number of atomic types    =            2
     number of electrons       =       176.00
     number of Kohn-Sham states=          106
     kinetic-energy cutoff     =      30.0000  Ry
     charge density cutoff     =     120.0000  Ry
     convergence threshold     =      1.0E-07
     mixing beta               =       0.7000
     number of iterations used =            8  plain     mixing
     Exchange-correlation      = PBE ( 1  4  3  4 0 0)
     nstep                     =          200


     celldm(1)=  29.233748  celldm(2)=   0.500000  celldm(3)=   1.500000
     celldm(4)=   0.000000  celldm(5)=   0.000000  celldm(6)=   0.000000

     crystal axes: (cart. coord. in units of alat)
               a(1) = (   1.000000   0.000000   0.000000 )  
               a(2) = (   0.000000   0.500000   0.000000 )  
               a(3) = (   0.000000   0.000000   1.500000 )  

     reciprocal axes: (cart. coord. in units 2 pi/alat)
               b(1) = (  1.000000  0.000000  0.000000 )  
               b(2) = (  0.000000  2.000000  0.000000 )  
               b(3) = (  0.000000  0.000000  0.666667 )  


     PseudoPot. # 1 for Si read from file:
     /home/anonymous/download/SSSP_precision_pseudos/Si.pbe-n-rrkjus_psl.1.0.0.UPF
     MD5 check sum: 0b0bb1205258b0d07b9f9672cf965d36
     Pseudo is Ultrasoft + core correction, Zval =  4.0
     Generated using "atomic" code by A. Dal Corso  v.5.1
     Using radial grid of 1141 points,  6 beta functions with: 
                l(1) =   0
                l(2) =   0
                l(3) =   1
                l(4) =   1
                l(5) =   2
                l(6) =   2
     Q(r) pseudized with 0 coefficients 


     PseudoPot. # 2 for H  read from file:
     /home/anonymous/download/SSSP_precision_pseudos/H_ONCV_PBE-1.0.oncvpsp.upf
     MD5 check sum: 1790becc920ee074925cf490c71280fe
     Pseudo is Norm-conserving, Zval =  1.0
     Generated using ONCVPSP code by D. R. Hamann
     Using radial grid of 1166 points,  2 beta functions with: 
                l(1) =   0
                l(2) =   0

     atomic species   valence    mass     pseudopotential
        Si             4.00    28.08550     Si( 1.00)
        H              1.00     1.00784     H ( 1.00)

     No symmetry found



   Cartesian axes

     site n.     atom                  positions (alat units)
         1           H   tau(   1) = (   0.0000000  -0.0675500  -0.0675500  )
         2           H   tau(   2) = (   0.0000000   0.0675500  -0.0675500  )
         3           H   tau(   3) = (   0.2500000  -0.0675500  -0.0675500  )
         4           H   tau(   4) = (   0.2500000   0.0675500  -0.0675500  )
         5           H   tau(   5) = (   0.2500000   0.1824500  -0.0675500  )
         6           H   tau(   6) = (   0.2500000   0.3175500  -0.0675500  )
         7           H   tau(   7) = (   0.5000000   0.1824500  -0.0675500  )
         8           H   tau(   8) = (   0.5000000   0.3175500  -0.0675500  )
         9           H   tau(   9) = (   0.7500000   0.1824500  -0.0675500  )
        10           H   tau(  10) = (   0.7500000   0.3175500  -0.0675500  )
        11           H   tau(  11) = (   0.0000000   0.1824500  -0.0675500  )
        12           H   tau(  12) = (   0.0000000   0.3175500  -0.0675500  )
        13           H   tau(  13) = (   0.5000000  -0.0675500  -0.0675500  )
        14           H   tau(  14) = (   0.5000000   0.0675500  -0.0675500  )
        15           H   tau(  15) = (   0.7500000  -0.0675500  -0.0675500  )
        16           H   tau(  16) = (   0.7500000   0.0675500  -0.0675500  )
        17           Si  tau(  17) = (   0.0000000   0.0000000   0.0000000  )
        18           Si  tau(  18) = (   0.2500000   0.0000000   0.0000000  )
        19           Si  tau(  19) = (   0.0000000   0.2500000   0.0000000  )
        20           Si  tau(  20) = (   0.2500000   0.2500000   0.0000000  )
        21           Si  tau(  21) = (   0.5000000   0.0000000   0.0000000  )
        22           Si  tau(  22) = (   0.7500000   0.0000000   0.0000000  )
        23           Si  tau(  23) = (   0.5000000   0.2500000   0.0000000  )
        24           Si  tau(  24) = (   0.7500000   0.2500000   0.0000000  )
        25           Si  tau(  25) = (   0.1250000   0.0000000   0.0883883  )
        26           Si  tau(  26) = (   0.3750000   0.0000000   0.0883883  )
        27           Si  tau(  27) = (   0.1250000   0.2500000   0.0883883  )
        28           Si  tau(  28) = (   0.3750000   0.2500000   0.0883883  )
        29           Si  tau(  29) = (   0.6250000   0.0000000   0.0883883  )
        30           Si  tau(  30) = (   0.8750000   0.0000000   0.0883883  )
        31           Si  tau(  31) = (   0.6250000   0.2500000   0.0883883  )
        32           Si  tau(  32) = (   0.8750000   0.2500000   0.0883883  )
        33           Si  tau(  33) = (   0.6250000   0.3750000   0.1767767  )
        34           Si  tau(  34) = (   0.1250000   0.1250000   0.1767767  )
        35           Si  tau(  35) = (   0.3750000   0.1250000   0.1767767  )
        36           Si  tau(  36) = (   0.3750000   0.3750000   0.1767767  )
        37           Si  tau(  37) = (   0.8750000   0.1250000   0.1767767  )
        38           Si  tau(  38) = (   0.8750000   0.3750000   0.1767767  )
        39           Si  tau(  39) = (   0.1250000   0.3750000   0.1767767  )
        40           Si  tau(  40) = (   0.6250000   0.1250000   0.1767767  )
        41           Si  tau(  41) = (   0.7500000   0.3750000   0.2651650  )
        42           Si  tau(  42) = (   0.2500000   0.1250000   0.2651650  )
        43           Si  tau(  43) = (   0.5000000   0.1250000   0.2651650  )
        44           Si  tau(  44) = (   0.5000000   0.3750000   0.2651650  )
        45           Si  tau(  45) = (   0.0000000   0.1250000   0.2651650  )
        46           Si  tau(  46) = (   0.0000000   0.3750000   0.2651650  )
        47           Si  tau(  47) = (   0.2500000   0.3750000   0.2651650  )
        48           Si  tau(  48) = (   0.7500000   0.1250000   0.2651650  )
        49           Si  tau(  49) = (   0.0010000   0.0000000   0.3535534  )
        50           Si  tau(  50) = (   0.2490000   0.0000000   0.3535534  )
        51           Si  tau(  51) = (   0.0020000   0.2500000   0.3535534  )
        52           Si  tau(  52) = (   0.2480000   0.2500000   0.3535534  )
        53           Si  tau(  53) = (   0.5020000   0.0000000   0.3535534  )
        54           Si  tau(  54) = (   0.7490000   0.0000000   0.3535534  )
        55           Si  tau(  55) = (   0.5010000   0.2500000   0.3535534  )
        56           Si  tau(  56) = (   0.7470000   0.2500000   0.3535534  )

     number of k points=     6  gaussian smearing, width (Ry)=  0.0050
                       cart. coord. in units 2pi/alat
        k(    1) = (   0.0000000   0.0000000   0.0000000), wk =   0.2500000
        k(    2) = (   0.0000000   0.5000000   0.0000000), wk =   0.5000000
        k(    3) = (   0.0000000  -1.0000000   0.0000000), wk =   0.2500000
        k(    4) = (  -0.5000000   0.0000000   0.0000000), wk =   0.2500000
        k(    5) = (  -0.5000000   0.5000000   0.0000000), wk =   0.5000000
        k(    6) = (  -0.5000000  -1.0000000   0.0000000), wk =   0.2500000

     Dense  grid:   415795 G-vectors     FFT dimensions: ( 108,  54, 160)

     Estimated max dynamical RAM per process >     181.52MB

     Estimated total allocated dynamical RAM >    2178.29MB

     Check: negative/imaginary core charge=   -0.000002    0.000000

     Initial potential from superposition of free atoms
     Check: negative starting charge=   -0.004168

     starting charge  175.97748, renormalised to  176.00000

     negative rho (up, down):  4.169E-03 0.000E+00
     Starting wfc are  176 randomized atomic wfcs

     total cpu time spent up to now is        9.7 secs

     per-process dynamical memory:   151.5 Mb

     Self-consistent Calculation

     iteration #  1     ecut=    30.00 Ry     beta=0.70
     Davidson diagonalization with overlap
     ethr =  1.00E-02,  avg # of iterations =  3.0

     negative rho (up, down):  2.798E-03 0.000E+00

     total cpu time spent up to now is       30.8 secs

     total energy              =    -473.32345751 Ry
     Harris-Foulkes estimate   =    -474.40860002 Ry
     estimated scf accuracy    <       2.40460493 Ry

     iteration #  2     ecut=    30.00 Ry     beta=0.70
     Davidson diagonalization with overlap
     ethr =  1.37E-03,  avg # of iterations =  5.5

     negative rho (up, down):  2.861E-03 0.000E+00

     total cpu time spent up to now is       53.4 secs

     total energy              =    -469.85184865 Ry
     Harris-Foulkes estimate   =    -475.25246660 Ry
     estimated scf accuracy    <      25.78529081 Ry

     iteration #  3     ecut=    30.00 Ry     beta=0.70
     Davidson diagonalization with overlap
     ethr =  1.37E-03,  avg # of iterations =  5.5

     negative rho (up, down):  3.188E-03 0.000E+00

     total cpu time spent up to now is       77.8 secs

     total energy              =    -473.28498046 Ry
     Harris-Foulkes estimate   =    -474.47958490 Ry
     estimated scf accuracy    <       7.85886508 Ry

     iteration #  4     ecut=    30.00 Ry     beta=0.70
     Davidson diagonalization with overlap
     ethr =  1.37E-03,  avg # of iterations =  3.5

     negative rho (up, down):  3.355E-03 0.000E+00

     total cpu time spent up to now is       95.1 secs

     total energy              =    -473.74217800 Ry
     Harris-Foulkes estimate   =    -473.90847233 Ry
     estimated scf accuracy    <       0.61739144 Ry

     iteration #  5     ecut=    30.00 Ry     beta=0.70
     Davidson diagonalization with overlap
     ethr =  3.51E-04,  avg # of iterations =  7.2

     negative rho (up, down):  3.429E-03 0.000E+00

     total cpu time spent up to now is      116.4 secs

     total energy              =    -473.70986839 Ry
     Harris-Foulkes estimate   =    -474.00989191 Ry
     estimated scf accuracy    <       2.72157106 Ry

     iteration #  6     ecut=    30.00 Ry     beta=0.70
     Davidson diagonalization with overlap
     ethr =  3.51E-04,  avg # of iterations =  2.8

     negative rho (up, down):  3.582E-03 0.000E+00

     total cpu time spent up to now is      131.5 secs

     total energy              =    -473.80811038 Ry
     Harris-Foulkes estimate   =    -473.83263716 Ry
     estimated scf accuracy    <       0.17764467 Ry

     iteration #  7     ecut=    30.00 Ry     beta=0.70
     Davidson diagonalization with overlap
     ethr =  1.01E-04,  avg # of iterations =  6.5

     negative rho (up, down):  3.613E-03 0.000E+00

     total cpu time spent up to now is      149.9 secs

     total energy              =    -473.81022877 Ry
     Harris-Foulkes estimate   =    -473.82988515 Ry
     estimated scf accuracy    <       0.20624962 Ry

     iteration #  8     ecut=    30.00 Ry     beta=0.70
     Davidson diagonalization with overlap
     ethr =  1.01E-04,  avg # of iterations =  1.0

     negative rho (up, down):  3.664E-03 0.000E+00

     total cpu time spent up to now is      163.7 secs

     total energy              =    -473.81369957 Ry
     Harris-Foulkes estimate   =    -473.82672112 Ry
     estimated scf accuracy    <       0.15189053 Ry

     iteration #  9     ecut=    30.00 Ry     beta=0.70
     Davidson diagonalization with overlap
     ethr =  8.63E-05,  avg # of iterations =  1.0

     negative rho (up, down):  3.702E-03 0.000E+00

     total cpu time spent up to now is      177.5 secs

     total energy              =    -473.81683021 Ry
     Harris-Foulkes estimate   =    -473.81985736 Ry
     estimated scf accuracy    <       0.02655584 Ry

     iteration # 10     ecut=    30.00 Ry     beta=0.70
     Davidson diagonalization with overlap
     ethr =  1.51E-05,  avg # of iterations =  7.8

     negative rho (up, down):  3.762E-03 0.000E+00

     total cpu time spent up to now is      196.2 secs

     total energy              =    -473.81600181 Ry
     Harris-Foulkes estimate   =    -473.81814107 Ry
     estimated scf accuracy    <       0.01170426 Ry

     iteration # 11     ecut=    30.00 Ry     beta=0.70
     Davidson diagonalization with overlap
     c_bands:  1 eigenvalues not converged
     ethr =  6.65E-06,  avg # of iterations =  9.8

     negative rho (up, down):  3.782E-03 0.000E+00

     total cpu time spent up to now is      217.3 secs

     total energy              =    -473.81663492 Ry
     Harris-Foulkes estimate   =    -473.81753538 Ry
     estimated scf accuracy    <       0.00349012 Ry

     iteration # 12     ecut=    30.00 Ry     beta=0.70
     Davidson diagonalization with overlap
     ethr =  1.98E-06,  avg # of iterations =  5.3

     negative rho (up, down):  3.780E-03 0.000E+00

     total cpu time spent up to now is      235.5 secs

     total energy              =    -473.81704645 Ry
     Harris-Foulkes estimate   =    -473.81734941 Ry
     estimated scf accuracy    <       0.00118716 Ry

     iteration # 13     ecut=    30.00 Ry     beta=0.70
     Davidson diagonalization with overlap
     ethr =  6.75E-07,  avg # of iterations =  5.5

     negative rho (up, down):  3.778E-03 0.000E+00

     total cpu time spent up to now is      253.3 secs

     total energy              =    -473.81712697 Ry
     Harris-Foulkes estimate   =    -473.81735226 Ry
     estimated scf accuracy    <       0.00086276 Ry

     iteration # 14     ecut=    30.00 Ry     beta=0.70
     Davidson diagonalization with overlap
     ethr =  4.90E-07,  avg # of iterations =  2.0

     negative rho (up, down):  3.777E-03 0.000E+00

     total cpu time spent up to now is      268.0 secs

     total energy              =    -473.81720315 Ry
     Harris-Foulkes estimate   =    -473.81725687 Ry
     estimated scf accuracy    <       0.00025409 Ry

     iteration # 15     ecut=    30.00 Ry     beta=0.70
     Davidson diagonalization with overlap
     ethr =  1.44E-07,  avg # of iterations =  3.0

     negative rho (up, down):  3.776E-03 0.000E+00

     total cpu time spent up to now is      284.7 secs

     total energy              =    -473.81718849 Ry
     Harris-Foulkes estimate   =    -473.81726757 Ry
     estimated scf accuracy    <       0.00051465 Ry

     iteration # 16     ecut=    30.00 Ry     beta=0.70
     Davidson diagonalization with overlap
     ethr =  1.44E-07,  avg # of iterations =  2.0

     negative rho (up, down):  3.776E-03 0.000E+00

     total cpu time spent up to now is      299.3 secs

     total energy              =    -473.81721490 Ry
     Harris-Foulkes estimate   =    -473.81725994 Ry
     estimated scf accuracy    <       0.00053881 Ry

     iteration # 17     ecut=    30.00 Ry     beta=0.70
     Davidson diagonalization with overlap
     ethr =  1.44E-07,  avg # of iterations =  1.0

     negative rho (up, down):  3.776E-03 0.000E+00

     total cpu time spent up to now is      313.1 secs

     total energy              =    -473.81723219 Ry
     Harris-Foulkes estimate   =    -473.81724079 Ry
     estimated scf accuracy    <       0.00003036 Ry

     iteration # 18     ecut=    30.00 Ry     beta=0.70
     Davidson diagonalization with overlap
     ethr =  1.72E-08,  avg # of iterations =  2.5

     negative rho (up, down):  3.776E-03 0.000E+00

     total cpu time spent up to now is      328.6 secs

     total energy              =    -473.81722680 Ry
     Harris-Foulkes estimate   =    -473.81724915 Ry
     estimated scf accuracy    <       0.00029321 Ry

     iteration # 19     ecut=    30.00 Ry     beta=0.70
     Davidson diagonalization with overlap
     ethr =  1.72E-08,  avg # of iterations =  2.0

     negative rho (up, down):  3.776E-03 0.000E+00

     total cpu time spent up to now is      343.2 secs

     total energy              =    -473.81723709 Ry
     Harris-Foulkes estimate   =    -473.81724037 Ry
     estimated scf accuracy    <       0.00001860 Ry

     iteration # 20     ecut=    30.00 Ry     beta=0.70
     Davidson diagonalization with overlap
     ethr =  1.06E-08,  avg # of iterations =  1.3

     negative rho (up, down):  3.776E-03 0.000E+00

     total cpu time spent up to now is      357.2 secs

     total energy              =    -473.81723839 Ry
     Harris-Foulkes estimate   =    -473.81723943 Ry
     estimated scf accuracy    <       0.00000403 Ry

     iteration # 21     ecut=    30.00 Ry     beta=0.70
     Davidson diagonalization with overlap
     ethr =  2.29E-09,  avg # of iterations =  3.0

     negative rho (up, down):  3.776E-03 0.000E+00

     total cpu time spent up to now is      373.1 secs

     total energy              =    -473.81723889 Ry
     Harris-Foulkes estimate   =    -473.81723908 Ry
     estimated scf accuracy    <       0.00000065 Ry

     iteration # 22     ecut=    30.00 Ry     beta=0.70
     Davidson diagonalization with overlap
     ethr =  3.67E-10,  avg # of iterations =  2.3

     negative rho (up, down):  3.776E-03 0.000E+00

     total cpu time spent up to now is      388.7 secs

     total energy              =    -473.81723892 Ry
     Harris-Foulkes estimate   =    -473.81723909 Ry
     estimated scf accuracy    <       0.00000072 Ry

     iteration # 23     ecut=    30.00 Ry     beta=0.70
     Davidson diagonalization with overlap
     ethr =  3.67E-10,  avg # of iterations =  2.0

     negative rho (up, down):  3.776E-03 0.000E+00

     total cpu time spent up to now is      403.3 secs

     total energy              =    -473.81723900 Ry
     Harris-Foulkes estimate   =    -473.81723903 Ry
     estimated scf accuracy    <       0.00000011 Ry

     iteration # 24     ecut=    30.00 Ry     beta=0.70
     Davidson diagonalization with overlap
     ethr =  6.48E-11,  avg # of iterations =  2.3

     negative rho (up, down):  3.776E-03 0.000E+00

     total cpu time spent up to now is      418.6 secs

     End of self-consistent calculation

          k = 0.0000 0.0000 0.0000 ( 52087 PWs)   bands (ev):

   -12.9673 -12.4775 -12.4490 -11.6130 -11.3256 -11.3004 -11.2892 -11.2128
   -11.1961 -10.9457 -10.7920 -10.7793 -10.7705 -10.7402 -10.4225  -9.8611
    -9.8517  -9.7700  -9.5094  -9.3576  -9.2765  -9.1981  -9.0253  -8.7581
    -8.7220  -8.3193  -8.0701  -8.0571  -7.9107  -7.9091  -7.8987  -7.8668
    -7.8048  -7.4060  -7.3887  -7.3769  -7.0626  -6.4334  -6.3985  -6.3984
    -6.2703  -6.2620  -6.2386  -5.5238  -5.1471  -4.9086  -4.8074  -4.7849
    -4.7758  -4.7030  -4.6411  -4.6313  -4.5882  -4.5878  -4.5858  -4.5545
    -4.5195  -4.4748  -4.4657  -4.1448  -4.1187  -4.1135  -4.0851  -4.0702
    -3.9981  -3.9485  -3.8115  -3.7928  -3.3463  -3.2447  -3.1664  -3.1517
    -2.9101  -2.8773  -2.6997  -2.6235  -2.6161  -2.4712  -2.4371  -2.4272
    -2.4262  -2.3103  -2.3047  -2.2961  -2.2432  -2.0411  -2.0031  -1.9546
    -1.9019  -1.8684  -1.1806  -1.0812  -1.0702  -1.0103  -0.4529  -0.3081
    -0.1025   0.1843   0.1930   0.2348   0.2464   0.2674   0.3202   0.3863
     0.6509   0.7283

          k = 0.0000 0.5000 0.0000 ( 52005 PWs)   bands (ev):

   -12.8407 -12.3497 -12.3214 -11.9060 -11.5119 -11.4026 -11.3771 -11.1908
   -11.1052 -11.0885 -11.0370 -10.8109 -10.5539 -10.5370 -10.3176 -10.1494
    -9.8163  -9.7374  -9.7276  -9.6485  -9.6305  -9.0068  -8.8874  -8.8658
    -8.4531  -8.3152  -8.2949  -8.2716  -7.7964  -7.6657  -7.4913  -7.4456
    -7.4318  -7.1569  -7.1120  -7.0966  -7.0048  -6.2067  -6.1975  -5.9586
    -5.9312  -5.9310  -5.8434  -5.5783  -5.3753  -5.1712  -5.0364  -5.0343
    -4.9802  -4.9401  -4.9082  -4.8894  -4.8373  -4.8292  -4.6542  -4.5224
    -4.4501  -4.4374  -4.4337  -4.4046  -4.2447  -4.2409  -4.2236  -4.1994
    -3.8534  -3.7058  -3.6982  -3.6970  -3.6906  -3.6653  -3.5221  -3.5168
    -3.5107  -3.3468  -3.1976  -3.0415  -3.0292  -3.0288  -2.5841  -2.5337
    -2.4714  -2.3695  -2.3353  -2.3217  -2.3059  -1.9807  -1.9632  -1.9153
    -1.8394  -1.7964  -1.2661  -1.1679  -0.9771  -0.9112  -0.2199   0.3055
     0.3549   0.3743   0.4673   0.6087   0.6358   0.6584   0.8349   0.8487
     0.9357   1.1103

          k = 0.0000-1.0000 0.0000 ( 51922 PWs)   bands (ev):

   -12.4717 -12.4716 -11.9768 -11.9765 -11.9495 -11.9489 -11.2510 -11.2509
   -10.8203 -10.8191 -10.8042 -10.8026 -10.7919 -10.7916 -10.4151 -10.4149
   -10.0276 -10.0273  -9.3808  -9.3806  -9.3693  -9.3688  -9.3129  -9.3127
    -7.9104  -7.9081  -7.8950  -7.8928  -7.7820  -7.7819  -7.7615  -7.7614
    -7.0230  -7.0230  -6.2726  -6.2655  -6.2582  -6.2517  -6.0428  -6.0424
    -5.8005  -5.8003  -5.2412  -5.2395  -5.2323  -5.2308  -5.1748  -5.1746
    -5.1717  -5.1687  -5.1679  -5.1653  -4.8742  -4.8742  -4.7377  -4.7374
    -4.7349  -4.7339  -4.7152  -4.7144  -4.6220  -4.6214  -4.2872  -4.2868
    -4.0986  -4.0955  -4.0898  -4.0867  -4.0682  -4.0680  -3.5842  -3.5840
    -3.4399  -3.4366  -3.4306  -3.4272  -3.3852  -3.3852  -2.5116  -2.5113
    -2.1501  -2.1376  -2.0981  -2.0966  -2.0883  -2.0836  -2.0549  -2.0436
    -2.0080  -2.0080  -1.1644  -1.1485  -1.0841  -1.0676   0.0814   0.0815
     0.4982   0.4996   0.7806   0.7810   0.8892   0.8895   0.9739   0.9741
     1.1163   1.1172

          k =-0.5000 0.0000 0.0000 ( 51914 PWs)   bands (ev):

   -12.8394 -12.8390 -11.8783 -11.8772 -11.5046 -11.5042 -11.1701 -11.1696
   -11.1545 -11.1544 -10.8449 -10.8438 -10.2190 -10.2185 -10.1757 -10.1754
   -10.1141 -10.1128  -9.7685  -9.7683  -8.9467  -8.9460  -8.6674  -8.6667
    -8.4148  -8.4143  -8.3805  -8.3782  -7.9243  -7.9239  -7.8415  -7.8413
    -7.5865  -7.5856  -7.3813  -7.3813  -6.9212  -6.9193  -6.4162  -6.4158
    -6.3279  -6.3273  -5.4066  -5.4055  -5.2046  -5.2036  -5.0924  -5.0922
    -4.9909  -4.9893  -4.6425  -4.6423  -4.4965  -4.4960  -4.4081  -4.4072
    -4.3565  -4.3561  -4.0551  -4.0546  -4.0409  -4.0408  -4.0140  -4.0134
    -3.6380  -3.6369  -3.5444  -3.5433  -3.5001  -3.4999  -3.4562  -3.4561
    -3.2938  -3.2935  -3.0045  -3.0035  -2.5049  -2.5010  -2.4565  -2.4560
    -2.3810  -2.3804  -2.2508  -2.2506  -2.1325  -2.1269  -1.9401  -1.9385
    -1.7933  -1.7920  -1.5580  -1.5571  -0.3804  -0.3735  -0.1545  -0.1531
    -0.0431  -0.0327   0.0167   0.0173   0.4830   0.4831   0.5025   0.5043
     0.6028   0.6032

          k =-0.5000 0.5000 0.0000 ( 51960 PWs)   bands (ev):

   -12.7125 -12.7121 -11.7754 -11.7750 -11.7485 -11.7474 -11.4021 -11.4017
   -10.9112 -10.9108 -10.7799 -10.7791 -10.7231 -10.7219 -10.1023 -10.1017
   -10.0077 -10.0070  -9.6459  -9.6457  -9.2074  -9.2072  -8.9490  -8.9486
    -8.3329  -8.3320  -8.2690  -8.2685  -7.5970  -7.5962  -7.4609  -7.4609
    -7.4464  -7.4448  -7.1130  -7.1128  -6.8568  -6.8548  -5.9848  -5.9842
    -5.8478  -5.8474  -5.4538  -5.4530  -5.4279  -5.4272  -5.2640  -5.2631
    -5.0597  -5.0594  -4.9076  -4.9073  -4.6082  -4.6078  -4.4656  -4.4645
    -4.4148  -4.4144  -4.3313  -4.3312  -4.0986  -4.0978  -4.0581  -4.0572
    -3.9552  -3.9545  -3.6600  -3.6595  -3.6443  -3.6438  -3.5053  -3.5047
    -3.3920  -3.3911  -3.2698  -3.2693  -3.1996  -3.1992  -2.9669  -2.9666
    -2.4116  -2.4075  -2.3670  -2.3661  -2.0830  -2.0777  -1.9448  -1.9441
    -1.7246  -1.7232  -1.4997  -1.4988  -0.1989  -0.1932  -0.1650  -0.1574
     0.2830   0.2846   0.7627   0.7628   0.8604   0.8606   0.9498   0.9508
     1.0320   1.0333

          k =-0.5000-1.0000 0.0000 ( 52096 PWs)   bands (ev):

   -12.3427 -12.3427 -12.3424 -12.3421 -11.3690 -11.3687 -11.3677 -11.3672
   -11.1359 -11.1359 -11.1356 -11.1351 -10.3868 -10.3868 -10.3853 -10.3847
    -9.7613  -9.7612  -9.7609  -9.7605  -9.3031  -9.3029  -9.3027  -9.3027
    -7.8535  -7.8534  -7.8533  -7.8528  -7.7861  -7.7858  -7.7840  -7.7837
    -6.8369  -6.8359  -6.8298  -6.8291  -6.0251  -6.0245  -6.0236  -6.0235
    -5.6789  -5.6787  -5.6778  -5.6777  -5.1417  -5.1413  -5.1405  -5.1404
    -5.0759  -5.0758  -5.0726  -5.0726  -4.6988  -4.6987  -4.6984  -4.6980
    -4.6617  -4.6608  -4.6604  -4.6600  -4.4039  -4.4034  -4.4013  -4.4010
    -4.2237  -4.2236  -4.2213  -4.2210  -3.8641  -3.8641  -3.8610  -3.8609
    -3.3265  -3.3265  -3.3251  -3.3247  -3.2278  -3.2276  -3.2269  -3.2268
    -2.1822  -2.1774  -2.1684  -2.1658  -2.0306  -2.0298  -2.0275  -2.0253
    -1.7109  -1.7107  -1.7106  -1.7101  -0.1907  -0.1895  -0.1765  -0.1727
     0.8774   0.8780   0.8790   0.8790   1.0898   1.0900   1.0908   1.0911
     1.1544   1.1554

     the Fermi energy is    -1.9071 ev

!    total energy              =    -473.81723896 Ry
     Harris-Foulkes estimate   =    -473.81723903 Ry
     estimated scf accuracy    <       0.00000009 Ry

     The total energy is the sum of the following terms:

     one-electron contribution =   -2914.99333490 Ry
     hartree contribution      =    1488.75999453 Ry
     xc contribution           =    -254.94435511 Ry
     ewald contribution        =    1207.36471891 Ry
     smearing contrib. (-TS)   =      -0.00426240 Ry

     convergence has been achieved in  24 iterations

     negative rho (up, down):  3.776E-03 0.000E+00

     Forces acting on atoms (cartesian axes, Ry/au):

     atom    1 type  2   force =     0.00027430   -0.02386177    0.00759881
     atom    2 type  2   force =     0.00027436    0.02386170    0.00759882
     atom    3 type  2   force =    -0.00025952   -0.02385835    0.00759022
     atom    4 type  2   force =    -0.00025955    0.02385826    0.00759027
     atom    5 type  2   force =    -0.00022474   -0.02386077    0.00760290
     atom    6 type  2   force =    -0.00022474    0.02386071    0.00760283
     atom    7 type  2   force =     0.00022564   -0.02385692    0.00760332
     atom    8 type  2   force =     0.00022573    0.02385699    0.00760336
     atom    9 type  2   force =    -0.00021575   -0.02385776    0.00758888
     atom   10 type  2   force =    -0.00021568    0.02385780    0.00758897
     atom   11 type  2   force =     0.00022946   -0.02385747    0.00758733
     atom   12 type  2   force =     0.00022948    0.02385744    0.00758739
     atom   13 type  2   force =     0.00027679   -0.02385798    0.00760082
     atom   14 type  2   force =     0.00027675    0.02385798    0.00760081
     atom   15 type  2   force =    -0.00024284   -0.02386234    0.00760430
     atom   16 type  2   force =    -0.00024284    0.02386235    0.00760433
     atom   17 type  1   force =    -0.00070314   -0.00000004   -0.00173252
     atom   18 type  1   force =     0.00068880   -0.00000013   -0.00170727
     atom   19 type  1   force =    -0.00056409   -0.00000011   -0.00173413
     atom   20 type  1   force =     0.00054304    0.00000004   -0.00171123
     atom   21 type  1   force =    -0.00070083   -0.00000005   -0.00170046
     atom   22 type  1   force =     0.00065843   -0.00000006   -0.00172461
     atom   23 type  1   force =    -0.00053950   -0.00000005   -0.00171040
     atom   24 type  1   force =     0.00052781    0.00000011   -0.00171788
     atom   25 type  1   force =    -0.00001457   -0.00000029   -0.00958964
     atom   26 type  1   force =     0.00000718    0.00000002   -0.00949140
     atom   27 type  1   force =    -0.00001845    0.00000003   -0.00963279
     atom   28 type  1   force =     0.00000433    0.00000014   -0.00949648
     atom   29 type  1   force =     0.00014402    0.00000009   -0.00960789
     atom   30 type  1   force =     0.00007747   -0.00000002   -0.00948934
     atom   31 type  1   force =     0.00002683    0.00000002   -0.00965514
     atom   32 type  1   force =     0.00006878   -0.00000009   -0.00946960
     atom   33 type  1   force =    -0.00010051   -0.00020277   -0.00083781
     atom   34 type  1   force =     0.00004313    0.00017123   -0.00090298
     atom   35 type  1   force =     0.00000276   -0.00017201   -0.00133133
     atom   36 type  1   force =     0.00000271    0.00017222   -0.00133150
     atom   37 type  1   force =    -0.00009818   -0.00006411   -0.00142674
     atom   38 type  1   force =    -0.00009830    0.00006414   -0.00142670
     atom   39 type  1   force =     0.00004318   -0.00017149   -0.00090307
     atom   40 type  1   force =    -0.00010049    0.00020283   -0.00083790
     atom   41 type  1   force =     0.00314061   -0.00004605    0.00230316
     atom   42 type  1   force =     0.00285209   -0.00001041    0.00222537
     atom   43 type  1   force =    -0.00274942   -0.00003427    0.00226272
     atom   44 type  1   force =    -0.00274945    0.00003432    0.00226296
     atom   45 type  1   force =    -0.00281516    0.00001204    0.00220599
     atom   46 type  1   force =    -0.00281471   -0.00001214    0.00220633
     atom   47 type  1   force =     0.00285195    0.00001067    0.00222549
     atom   48 type  1   force =     0.00314082    0.00004618    0.00230318
     atom   49 type  1   force =     0.00406031    0.00000004   -0.00491472
     atom   50 type  1   force =    -0.00434666    0.00000020   -0.00485204
     atom   51 type  1   force =     0.00652253   -0.00000001   -0.00501734
     atom   52 type  1   force =    -0.00584968    0.00000010   -0.00517050
     atom   53 type  1   force =     0.00486233   -0.00000003   -0.00512117
     atom   54 type  1   force =    -0.00462714   -0.00000013   -0.00498505
     atom   55 type  1   force =     0.00561482    0.00000004   -0.00506210
     atom   56 type  1   force =    -0.00712050   -0.00000006   -0.00525684

     Total force =     0.023701     Total SCF correction =     0.000323

     BFGS Geometry Optimization

     number of scf cycles    =   1
     number of bfgs steps    =   0

     energy   new            =    -473.8172389577 Ry

     new trust radius        =       0.0088507558 bohr
     new conv_thr            =       0.0000001000 Ry


ATOMIC_POSITIONS (alat)
H        0.000000000  -0.067550000  -0.067550000    0   0   0
H        0.000000000   0.067550000  -0.067550000    0   0   0
H        0.250000000  -0.067550000  -0.067550000    0   0   0
H        0.250000000   0.067550000  -0.067550000    0   0   0
H        0.250000000   0.182450000  -0.067550000    0   0   0
H        0.250000000   0.317550000  -0.067550000    0   0   0
H        0.500000000   0.182450000  -0.067550000    0   0   0
H        0.500000000   0.317550000  -0.067550000    0   0   0
H        0.750000000   0.182450000  -0.067550000    0   0   0
H        0.750000000   0.317550000  -0.067550000    0   0   0
H        0.000000000   0.182450000  -0.067550000    0   0   0
H        0.000000000   0.317550000  -0.067550000    0   0   0
H        0.500000000  -0.067550000  -0.067550000    0   0   0
H        0.500000000   0.067550000  -0.067550000    0   0   0
H        0.750000000  -0.067550000  -0.067550000    0   0   0
H        0.750000000   0.067550000  -0.067550000    0   0   0
Si       0.000000000   0.000000000   0.000000000    0   0   0
Si       0.250000000   0.000000000   0.000000000    0   0   0
Si       0.000000000   0.250000000   0.000000000    0   0   0
Si       0.250000000   0.250000000   0.000000000    0   0   0
Si       0.500000000   0.000000000   0.000000000    0   0   0
Si       0.750000000   0.000000000   0.000000000    0   0   0
Si       0.500000000   0.250000000   0.000000000    0   0   0
Si       0.750000000   0.250000000   0.000000000    0   0   0
Si       0.125000000   0.000000000   0.088388348    0   0   0
Si       0.375000000   0.000000000   0.088388348    0   0   0
Si       0.125000000   0.250000000   0.088388348    0   0   0
Si       0.375000000   0.250000000   0.088388348    0   0   0
Si       0.625000000   0.000000000   0.088388348    0   0   0
Si       0.875000000   0.000000000   0.088388348    0   0   0
Si       0.625000000   0.250000000   0.088388348    0   0   0
Si       0.875000000   0.250000000   0.088388348    0   0   0
Si       0.624996562   0.374993064   0.176748037
Si       0.125001475   0.125005857   0.176745808
Si       0.375000094   0.124994116   0.176731155
Si       0.375000093   0.375005891   0.176731149
Si       0.874996641   0.124997807   0.176727891
Si       0.874996637   0.375002194   0.176727893
Si       0.125001477   0.374994134   0.176745805
Si       0.624996562   0.125006938   0.176748034
Si       0.750107431   0.374998425   0.265243828
Si       0.250097562   0.124999644   0.265241167
Si       0.499905951   0.124998828   0.265242445
Si       0.499905949   0.375001174   0.265242453
Si      -0.000096298   0.125000412   0.265240504
Si      -0.000096283   0.374999585   0.265240516
Si       0.250097557   0.375000365   0.265241171
Si       0.750107438   0.125001580   0.265243829
Si       0.001138891   0.000000001   0.353385274
Si       0.248851314   0.000000007   0.353387418
Si       0.002223116   0.250000000   0.353381764
Si       0.247799900   0.250000003   0.353376525
Si       0.502166326  -0.000000001   0.353378212
Si       0.748841719  -0.000000005   0.353382868
Si       0.501192067   0.250000001   0.353380233
Si       0.746756429   0.249999998   0.353373571



     Writing output data file si.save
     Check: negative starting charge=   -0.004168
     NEW-OLD atomic charge density approx. for the potential

     Check: negative/imaginary core charge=   -0.000002    0.000000
     Check: negative starting charge=   -0.004166

     negative rho (up, down):  3.773E-03 0.000E+00

     total cpu time spent up to now is      424.5 secs

     per-process dynamical memory:   264.8 Mb

     Self-consistent Calculation

     iteration #  1     ecut=    30.00 Ry     beta=0.70
     Davidson diagonalization with overlap
     ethr =  1.00E-06,  avg # of iterations =  3.0

     Threshold (ethr) on eigenvalues was too large:
     Diagonalizing with lowered threshold

     Davidson diagonalization with overlap
     ethr =  7.28E-08,  avg # of iterations =  1.8

     negative rho (up, down):  3.775E-03 0.000E+00

     total cpu time spent up to now is      458.5 secs

     total energy              =    -473.81772679 Ry
     Harris-Foulkes estimate   =    -473.81781199 Ry
     estimated scf accuracy    <       0.00013164 Ry

     iteration #  2     ecut=    30.00 Ry     beta=0.70
     Davidson diagonalization with overlap
     ethr =  7.48E-08,  avg # of iterations =  4.0

     negative rho (up, down):  3.775E-03 0.000E+00

     total cpu time spent up to now is      478.7 secs

     total energy              =    -473.81749841 Ry
     Harris-Foulkes estimate   =    -473.81795413 Ry
     estimated scf accuracy    <       0.00266229 Ry

     iteration #  3     ecut=    30.00 Ry     beta=0.70
     Davidson diagonalization with overlap
     ethr =  7.48E-08,  avg # of iterations =  6.5

     negative rho (up, down):  3.775E-03 0.000E+00

     total cpu time spent up to now is      499.2 secs

     total energy              =    -473.81756601 Ry
     Harris-Foulkes estimate   =    -473.81799452 Ry
     estimated scf accuracy    <       0.00549381 Ry

     iteration #  4     ecut=    30.00 Ry     beta=0.70
     Davidson diagonalization with overlap
     ethr =  7.48E-08,  avg # of iterations =  3.0

     negative rho (up, down):  3.775E-03 0.000E+00

     total cpu time spent up to now is      516.8 secs

     total energy              =    -473.81776554 Ry
     Harris-Foulkes estimate   =    -473.81781046 Ry
     estimated scf accuracy    <       0.00022718 Ry

     iteration #  5     ecut=    30.00 Ry     beta=0.70
     Davidson diagonalization with overlap
     ethr =  7.48E-08,  avg # of iterations =  2.0

     negative rho (up, down):  3.775E-03 0.000E+00

     total cpu time spent up to now is      532.0 secs

     total energy              =    -473.81777839 Ry
     Harris-Foulkes estimate   =    -473.81779552 Ry
     estimated scf accuracy    <       0.00018767 Ry

     iteration #  6     ecut=    30.00 Ry     beta=0.70
     Davidson diagonalization with overlap
     ethr =  7.48E-08,  avg # of iterations =  1.0

     negative rho (up, down):  3.776E-03 0.000E+00

     total cpu time spent up to now is      545.8 secs

     total energy              =    -473.81778717 Ry
     Harris-Foulkes estimate   =    -473.81779076 Ry
     estimated scf accuracy    <       0.00003142 Ry

     iteration #  7     ecut=    30.00 Ry     beta=0.70
     Davidson diagonalization with overlap
     ethr =  1.79E-08,  avg # of iterations =  1.3

     negative rho (up, down):  3.776E-03 0.000E+00

     total cpu time spent up to now is      559.8 secs

     total energy              =    -473.81778890 Ry
     Harris-Foulkes estimate   =    -473.81778936 Ry
     estimated scf accuracy    <       0.00000112 Ry

     iteration #  8     ecut=    30.00 Ry     beta=0.70
     Davidson diagonalization with overlap
     ethr =  6.37E-10,  avg # of iterations =  4.0

     negative rho (up, down):  3.776E-03 0.000E+00

     total cpu time spent up to now is      579.7 secs

     total energy              =    -473.81778919 Ry
     Harris-Foulkes estimate   =    -473.81778981 Ry
     estimated scf accuracy    <       0.00000305 Ry

     iteration #  9     ecut=    30.00 Ry     beta=0.70
     Davidson diagonalization with overlap
     ethr =  6.37E-10,  avg # of iterations =  2.0

     negative rho (up, down):  3.776E-03 0.000E+00

     total cpu time spent up to now is      594.8 secs

     total energy              =    -473.81778946 Ry
     Harris-Foulkes estimate   =    -473.81778950 Ry
     estimated scf accuracy    <       0.00000019 Ry

     iteration # 10     ecut=    30.00 Ry     beta=0.70
     Davidson diagonalization with overlap
     ethr =  1.08E-10,  avg # of iterations =  3.0

     negative rho (up, down):  3.776E-03 0.000E+00

     total cpu time spent up to now is      611.2 secs

     total energy              =    -473.81778946 Ry
     Harris-Foulkes estimate   =    -473.81778950 Ry
     estimated scf accuracy    <       0.00000014 Ry

     iteration # 11     ecut=    30.00 Ry     beta=0.70
     Davidson diagonalization with overlap
     ethr =  7.72E-11,  avg # of iterations =  2.0

     negative rho (up, down):  3.776E-03 0.000E+00

     total cpu time spent up to now is      625.9 secs

     End of self-consistent calculation

          k = 0.0000 0.0000 0.0000 ( 52087 PWs)   bands (ev):

   -12.9681 -12.4789 -12.4496 -11.6158 -11.3260 -11.3008 -11.2885 -11.2165
   -11.1990 -10.9517 -10.7932 -10.7789 -10.7689 -10.7409 -10.4230  -9.8636
    -9.8533  -9.7722  -9.5094  -9.3565  -9.2773  -9.2015  -9.0307  -8.7650
    -8.7259  -8.3258  -8.0719  -8.0575  -7.9156  -7.9113  -7.9030  -7.8724
    -7.8033  -7.4035  -7.3857  -7.3756  -7.0596  -6.4344  -6.3986  -6.3984
    -6.2697  -6.2578  -6.2387  -5.5217  -5.1471  -4.9090  -4.8076  -4.7850
    -4.7740  -4.7048  -4.6386  -4.6280  -4.5874  -4.5869  -4.5854  -4.5549
    -4.5179  -4.4748  -4.4650  -4.1468  -4.1200  -4.1161  -4.0837  -4.0708
    -3.9999  -3.9471  -3.8139  -3.7939  -3.3507  -3.2447  -3.1710  -3.1559
    -2.9118  -2.8731  -2.6999  -2.6287  -2.6234  -2.4716  -2.4328  -2.4265
    -2.4230  -2.3189  -2.3045  -2.3028  -2.2500  -2.0392  -2.0027  -1.9467
    -1.8975  -1.8629  -1.1873  -1.0819  -1.0658  -1.0055  -0.4540  -0.3083
    -0.1032   0.1824   0.1908   0.2359   0.2429   0.2647   0.3204   0.3837
     0.6492   0.7232

          k = 0.0000 0.5000 0.0000 ( 52005 PWs)   bands (ev):

   -12.8414 -12.3510 -12.3220 -11.9062 -11.5145 -11.4031 -11.3774 -11.1912
   -11.1086 -11.0914 -11.0376 -10.8167 -10.5547 -10.5381 -10.3182 -10.1496
    -9.8196  -9.7401  -9.7292  -9.6507  -9.6326  -9.0112  -8.8925  -8.8690
    -8.4524  -8.3173  -8.2956  -8.2731  -7.7950  -7.6689  -7.4893  -7.4430
    -7.4307  -7.1607  -7.1172  -7.0990  -7.0016  -6.2063  -6.1933  -5.9586
    -5.9313  -5.9312  -5.8449  -5.5771  -5.3768  -5.1723  -5.0360  -5.0335
    -4.9799  -4.9398  -4.9086  -4.8892  -4.8385  -4.8287  -4.6576  -4.5239
    -4.4499  -4.4379  -4.4336  -4.4067  -4.2443  -4.2399  -4.2267  -4.2020
    -3.8520  -3.7062  -3.6995  -3.6979  -3.6927  -3.6655  -3.5230  -3.5181
    -3.5114  -3.3573  -3.1953  -3.0491  -3.0358  -3.0349  -2.5838  -2.5325
    -2.4703  -2.3693  -2.3303  -2.3183  -2.3052  -1.9791  -1.9631  -1.9077
    -1.8345  -1.7926  -1.2718  -1.1638  -0.9770  -0.9068  -0.2182   0.3050
     0.3567   0.3744   0.4666   0.6076   0.6341   0.6583   0.8338   0.8476
     0.9388   1.0302

          k = 0.0000-1.0000 0.0000 ( 51922 PWs)   bands (ev):

   -12.4723 -12.4722 -11.9780 -11.9774 -11.9501 -11.9492 -11.2530 -11.2529
   -10.8231 -10.8216 -10.8066 -10.8049 -10.7922 -10.7919 -10.4204 -10.4204
   -10.0284 -10.0280  -9.3841  -9.3837  -9.3712  -9.3707  -9.3157  -9.3153
    -7.9085  -7.9065  -7.8951  -7.8932  -7.7816  -7.7815  -7.7611  -7.7611
    -7.0210  -7.0210  -6.2748  -6.2671  -6.2562  -6.2492  -6.0453  -6.0448
    -5.8018  -5.8016  -5.2413  -5.2392  -5.2327  -5.2310  -5.1774  -5.1772
    -5.1752  -5.1717  -5.1714  -5.1686  -4.8763  -4.8763  -4.7399  -4.7397
    -4.7358  -4.7346  -4.7142  -4.7134  -4.6223  -4.6217  -4.2873  -4.2870
    -4.0999  -4.0964  -4.0907  -4.0874  -4.0729  -4.0728  -3.5824  -3.5822
    -3.4427  -3.4389  -3.4336  -3.4297  -3.3878  -3.3878  -2.5108  -2.5104
    -2.1528  -2.1384  -2.0968  -2.0932  -2.0824  -2.0822  -2.0487  -2.0368
    -2.0037  -2.0036  -1.1676  -1.1504  -1.0805  -1.0629   0.0836   0.0836
     0.4979   0.4992   0.7819   0.7822   0.8912   0.8915   0.9745   0.9747
     1.1190   1.1203

          k =-0.5000 0.0000 0.0000 ( 51914 PWs)   bands (ev):

   -12.8402 -12.8398 -11.8793 -11.8784 -11.5075 -11.5070 -11.1705 -11.1700
   -11.1538 -11.1538 -10.8496 -10.8485 -10.2199 -10.2193 -10.1761 -10.1758
   -10.1140 -10.1130  -9.7706  -9.7704  -8.9524  -8.9514  -8.6688  -8.6681
    -8.4181  -8.4177  -8.3859  -8.3836  -7.9249  -7.9246  -7.8471  -7.8470
    -7.5851  -7.5840  -7.3789  -7.3789  -6.9182  -6.9161  -6.4170  -6.4166
    -6.3278  -6.3272  -5.4053  -5.4040  -5.2026  -5.2015  -5.0924  -5.0921
    -4.9902  -4.9885  -4.6425  -4.6424  -4.4949  -4.4945  -4.4101  -4.4091
    -4.3573  -4.3569  -4.0571  -4.0566  -4.0394  -4.0392  -4.0159  -4.0152
    -3.6340  -3.6329  -3.5443  -3.5432  -3.5003  -3.5000  -3.4573  -3.4571
    -3.2983  -3.2979  -3.0084  -3.0076  -2.5032  -2.4991  -2.4656  -2.4653
    -2.3790  -2.3783  -2.2577  -2.2576  -2.1288  -2.1228  -1.9405  -1.9389
    -1.7892  -1.7878  -1.5541  -1.5531  -0.3817  -0.3746  -0.1561  -0.1546
    -0.0446  -0.0338   0.0150   0.0155   0.4824   0.4824   0.4989   0.5006
     0.6026   0.6031

          k =-0.5000 0.5000 0.0000 ( 51960 PWs)   bands (ev):

   -12.7133 -12.7129 -11.7756 -11.7753 -11.7495 -11.7486 -11.4048 -11.4044
   -10.9118 -10.9115 -10.7805 -10.7798 -10.7275 -10.7265 -10.1033 -10.1027
   -10.0094 -10.0088  -9.6481  -9.6479  -9.2101  -9.2099  -8.9534  -8.9530
    -8.3341  -8.3333  -8.2704  -8.2699  -7.5956  -7.5947  -7.4591  -7.4589
    -7.4489  -7.4472  -7.1169  -7.1166  -6.8538  -6.8516  -5.9847  -5.9841
    -5.8490  -5.8487  -5.4532  -5.4523  -5.4288  -5.4280  -5.2627  -5.2617
    -5.0603  -5.0600  -4.9073  -4.9072  -4.6101  -4.6096  -4.4661  -4.4649
    -4.4160  -4.4155  -4.3331  -4.3330  -4.1002  -4.0992  -4.0568  -4.0558
    -3.9569  -3.9563  -3.6595  -3.6589  -3.6466  -3.6461  -3.5057  -3.5049
    -3.3920  -3.3912  -3.2693  -3.2686  -3.2072  -3.2070  -2.9732  -2.9730
    -2.4111  -2.4067  -2.3629  -2.3619  -2.0798  -2.0741  -1.9444  -1.9437
    -1.7210  -1.7194  -1.4960  -1.4950  -0.1987  -0.1929  -0.1661  -0.1583
     0.2820   0.2837   0.7610   0.7611   0.8608   0.8610   0.9527   0.9538
     1.0330   1.0344

          k =-0.5000-1.0000 0.0000 ( 52096 PWs)   bands (ev):

   -12.3433 -12.3433 -12.3430 -12.3428 -11.3698 -11.3695 -11.3686 -11.3682
   -11.1380 -11.1380 -11.1376 -11.1373 -10.3906 -10.3904 -10.3890 -10.3885
    -9.7628  -9.7627  -9.7624  -9.7620  -9.3058  -9.3055  -9.3054  -9.3052
    -7.8532  -7.8532  -7.8531  -7.8526  -7.7855  -7.7852  -7.7832  -7.7831
    -6.8351  -6.8339  -6.8277  -6.8270  -6.0274  -6.0269  -6.0259  -6.0257
    -5.6805  -5.6803  -5.6793  -5.6792  -5.1441  -5.1437  -5.1430  -5.1428
    -5.0778  -5.0777  -5.0745  -5.0745  -4.7003  -4.7001  -4.6999  -4.6995
    -4.6610  -4.6600  -4.6596  -4.6591  -4.4045  -4.4039  -4.4017  -4.4015
    -4.2251  -4.2251  -4.2227  -4.2223  -3.8678  -3.8678  -3.8645  -3.8644
    -3.3259  -3.3259  -3.3245  -3.3241  -3.2298  -3.2296  -3.2289  -3.2289
    -2.1806  -2.1749  -2.1666  -2.1629  -2.0270  -2.0259  -2.0237  -2.0211
    -1.7086  -1.7083  -1.7082  -1.7076  -0.1911  -0.1897  -0.1764  -0.1726
     0.8792   0.8798   0.8808   0.8808   1.0921   1.0923   1.0932   1.0935
     1.1557   1.1567

     the Fermi energy is    -1.9041 ev

!    total energy              =    -473.81778946 Ry
     Harris-Foulkes estimate   =    -473.81778948 Ry
     estimated scf accuracy    <       0.00000003 Ry

     The total energy is the sum of the following terms:

     one-electron contribution =   -2915.65204309 Ry
     hartree contribution      =    1489.08811405 Ry
     xc contribution           =    -254.95141355 Ry
     ewald contribution        =    1207.70170952 Ry
     smearing contrib. (-TS)   =      -0.00415639 Ry

     convergence has been achieved in  11 iterations

     negative rho (up, down):  3.776E-03 0.000E+00

     Forces acting on atoms (cartesian axes, Ry/au):

     atom    1 type  2   force =     0.00031645   -0.02385629    0.00760730
     atom    2 type  2   force =     0.00031642    0.02385630    0.00760731
     atom    3 type  2   force =    -0.00029991   -0.02385244    0.00759797
     atom    4 type  2   force =    -0.00029991    0.02385242    0.00759800
     atom    5 type  2   force =    -0.00026258   -0.02385494    0.00761045
     atom    6 type  2   force =    -0.00026263    0.02385497    0.00761043
     atom    7 type  2   force =     0.00026676   -0.02385168    0.00761105
     atom    8 type  2   force =     0.00026677    0.02385167    0.00761107
     atom    9 type  2   force =    -0.00025524   -0.02385242    0.00759699
     atom   10 type  2   force =    -0.00025526    0.02385243    0.00759700
     atom   11 type  2   force =     0.00027056   -0.02385183    0.00759491
     atom   12 type  2   force =     0.00027055    0.02385181    0.00759491
     atom   13 type  2   force =     0.00031867   -0.02385228    0.00760955
     atom   14 type  2   force =     0.00031868    0.02385228    0.00760956
     atom   15 type  2   force =    -0.00028322   -0.02385716    0.00761270
     atom   16 type  2   force =    -0.00028323    0.02385715    0.00761271
     atom   17 type  1   force =    -0.00080890   -0.00000000   -0.00176410
     atom   18 type  1   force =     0.00079371    0.00000006   -0.00173733
     atom   19 type  1   force =    -0.00066378    0.00000002   -0.00176656
     atom   20 type  1   force =     0.00063941    0.00000001   -0.00174082
     atom   21 type  1   force =    -0.00080528   -0.00000002   -0.00172809
     atom   22 type  1   force =     0.00076421    0.00000006   -0.00175682
     atom   23 type  1   force =    -0.00063830   -0.00000000   -0.00173969
     atom   24 type  1   force =     0.00062958   -0.00000004   -0.00174985
     atom   25 type  1   force =    -0.00002015   -0.00000003   -0.00964500
     atom   26 type  1   force =     0.00000903   -0.00000001   -0.00968092
     atom   27 type  1   force =    -0.00001275   -0.00000007   -0.00973652
     atom   28 type  1   force =     0.00001303   -0.00000002   -0.00964468
     atom   29 type  1   force =     0.00015937    0.00000003   -0.00965070
     atom   30 type  1   force =     0.00007463    0.00000006   -0.00968101
     atom   31 type  1   force =     0.00002722   -0.00000002   -0.00975427
     atom   32 type  1   force =     0.00006706    0.00000002   -0.00964110
     atom   33 type  1   force =    -0.00005194   -0.00016907    0.00006865
     atom   34 type  1   force =     0.00003825    0.00014938   -0.00000238
     atom   35 type  1   force =     0.00001594   -0.00013778   -0.00115136
     atom   36 type  1   force =     0.00001597    0.00013775   -0.00115130
     atom   37 type  1   force =    -0.00004580   -0.00004929   -0.00125058
     atom   38 type  1   force =    -0.00004573    0.00004926   -0.00125056
     atom   39 type  1   force =     0.00003816   -0.00014927   -0.00000239
     atom   40 type  1   force =    -0.00005197    0.00016908    0.00006863
     atom   41 type  1   force =     0.00292543   -0.00004640    0.00115399
     atom   42 type  1   force =     0.00268471   -0.00000570    0.00109501
     atom   43 type  1   force =    -0.00259713   -0.00001531    0.00111860
     atom   44 type  1   force =    -0.00259708    0.00001534    0.00111867
     atom   45 type  1   force =    -0.00267434    0.00000545    0.00107300
     atom   46 type  1   force =    -0.00267451   -0.00000527    0.00107299
     atom   47 type  1   force =     0.00268495    0.00000565    0.00109506
     atom   48 type  1   force =     0.00292543    0.00004630    0.00115398
     atom   49 type  1   force =     0.00479294    0.00000000   -0.00416547
     atom   50 type  1   force =    -0.00509711    0.00000001   -0.00411164
     atom   51 type  1   force =     0.00747652   -0.00000003   -0.00430605
     atom   52 type  1   force =    -0.00674967   -0.00000013   -0.00444242
     atom   53 type  1   force =     0.00564034   -0.00000005   -0.00436771
     atom   54 type  1   force =    -0.00538840    0.00000012   -0.00423450
     atom   55 type  1   force =     0.00648896   -0.00000007   -0.00430828
     atom   56 type  1   force =    -0.00812489   -0.00000001   -0.00453843

     Total force =     0.023307     Total SCF correction =     0.000212

     number of scf cycles    =   2
     number of bfgs steps    =   1

     energy   old            =    -473.8172389577 Ry
     energy   new            =    -473.8177894600 Ry

     CASE: energy  _new < energy  _old


     WARNING: bfgs curvature condition failed, Theta= 0.832
     new trust radius        =       0.0097358314 bohr
     new conv_thr            =       0.0000000110 Ry


ATOMIC_POSITIONS (alat)
H        0.000000000  -0.067550000  -0.067550000    0   0   0
H        0.000000000   0.067550000  -0.067550000    0   0   0
H        0.250000000  -0.067550000  -0.067550000    0   0   0
H        0.250000000   0.067550000  -0.067550000    0   0   0
H        0.250000000   0.182450000  -0.067550000    0   0   0
H        0.250000000   0.317550000  -0.067550000    0   0   0
H        0.500000000   0.182450000  -0.067550000    0   0   0
H        0.500000000   0.317550000  -0.067550000    0   0   0
H        0.750000000   0.182450000  -0.067550000    0   0   0
H        0.750000000   0.317550000  -0.067550000    0   0   0
H        0.000000000   0.182450000  -0.067550000    0   0   0
H        0.000000000   0.317550000  -0.067550000    0   0   0
H        0.500000000  -0.067550000  -0.067550000    0   0   0
H        0.500000000   0.067550000  -0.067550000    0   0   0
H        0.750000000  -0.067550000  -0.067550000    0   0   0
H        0.750000000   0.067550000  -0.067550000    0   0   0
Si       0.000000000   0.000000000   0.000000000    0   0   0
Si       0.250000000   0.000000000   0.000000000    0   0   0
Si       0.000000000   0.250000000   0.000000000    0   0   0
Si       0.250000000   0.250000000   0.000000000    0   0   0
Si       0.500000000   0.000000000   0.000000000    0   0   0
Si       0.750000000   0.000000000   0.000000000    0   0   0
Si       0.500000000   0.250000000   0.000000000    0   0   0
Si       0.750000000   0.250000000   0.000000000    0   0   0
Si       0.125000000   0.000000000   0.088388348    0   0   0
Si       0.375000000   0.000000000   0.088388348    0   0   0
Si       0.125000000   0.250000000   0.088388348    0   0   0
Si       0.375000000   0.250000000   0.088388348    0   0   0
Si       0.625000000   0.000000000   0.088388348    0   0   0
Si       0.875000000   0.000000000   0.088388348    0   0   0
Si       0.625000000   0.250000000   0.088388348    0   0   0
Si       0.875000000   0.250000000   0.088388348    0   0   0
Si       0.624993462   0.374985986   0.176728624
Si       0.125003010   0.125011919   0.176723906
Si       0.375000366   0.124988184   0.176684153
Si       0.375000363   0.375011828   0.176684144
Si       0.874993676   0.124995622   0.176677307
Si       0.874993670   0.375004379   0.176677310
Si       0.125003012   0.374988067   0.176723901
Si       0.624993462   0.125014018   0.176728619
Si       0.750220992   0.374996715   0.265314403
Si       0.250201050   0.124999318   0.265309102
Si       0.499806072   0.124997801   0.265311587
Si       0.499806070   0.375002202   0.265311601
Si      -0.000198759   0.125000773   0.265307688
Si      -0.000198735   0.374999223   0.265307707
Si       0.250201044   0.375000696   0.265309109
Si       0.750221005   0.125003291   0.265314404
Si       0.001298663   0.000000002   0.353212849
Si       0.248680708   0.000000012   0.353217202
Si       0.002476918   0.249999999   0.353205052
Si       0.247571710   0.250000004   0.353194355
Si       0.502356383  -0.000000002   0.353198195
Si       0.748660587  -0.000000006   0.353207855
Si       0.501411226   0.250000001   0.353202408
Si       0.746479834   0.249999996   0.353188080



     Writing output data file si.save
     Check: negative starting charge=   -0.004166
     NEW-OLD atomic charge density approx. for the potential

     Check: negative/imaginary core charge=   -0.000002    0.000000
     Check: negative starting charge=   -0.004165

     negative rho (up, down):  3.774E-03 0.000E+00

     total cpu time spent up to now is      631.8 secs

     per-process dynamical memory:   264.8 Mb

     Self-consistent Calculation

     iteration #  1     ecut=    30.00 Ry     beta=0.70
     Davidson diagonalization with overlap
     ethr =  1.00E-06,  avg # of iterations =  3.0

     Threshold (ethr) on eigenvalues was too large:
     Diagonalizing with lowered threshold

     Davidson diagonalization with overlap
     ethr =  7.63E-08,  avg # of iterations =  1.7

     negative rho (up, down):  3.776E-03 0.000E+00

     total cpu time spent up to now is      665.7 secs

     total energy              =    -473.81831026 Ry
     Harris-Foulkes estimate   =    -473.81839674 Ry
     estimated scf accuracy    <       0.00013752 Ry

     iteration #  2     ecut=    30.00 Ry     beta=0.70
     Davidson diagonalization with overlap
     ethr =  7.81E-08,  avg # of iterations =  4.0

     negative rho (up, down):  3.776E-03 0.000E+00

     total cpu time spent up to now is      685.7 secs

     total energy              =    -473.81823612 Ry
     Harris-Foulkes estimate   =    -473.81847020 Ry
     estimated scf accuracy    <       0.00073203 Ry

     iteration #  3     ecut=    30.00 Ry     beta=0.70
     Davidson diagonalization with overlap
     ethr =  7.81E-08,  avg # of iterations =  4.0

     negative rho (up, down):  3.776E-03 0.000E+00

     total cpu time spent up to now is      705.5 secs

     total energy              =    -473.81826412 Ry
     Harris-Foulkes estimate   =    -473.81845698 Ry
     estimated scf accuracy    <       0.00201969 Ry

     iteration #  4     ecut=    30.00 Ry     beta=0.70
     Davidson diagonalization with overlap
     ethr =  7.81E-08,  avg # of iterations =  2.0

     negative rho (up, down):  3.776E-03 0.000E+00

     total cpu time spent up to now is      721.1 secs

     total energy              =    -473.81833728 Ry
     Harris-Foulkes estimate   =    -473.81840379 Ry
     estimated scf accuracy    <       0.00064334 Ry

     iteration #  5     ecut=    30.00 Ry     beta=0.70
     Davidson diagonalization with overlap
     ethr =  7.81E-08,  avg # of iterations =  2.7

     negative rho (up, down):  3.776E-03 0.000E+00

     total cpu time spent up to now is      736.7 secs

     total energy              =    -473.81836801 Ry
     Harris-Foulkes estimate   =    -473.81837257 Ry
     estimated scf accuracy    <       0.00001574 Ry

     iteration #  6     ecut=    30.00 Ry     beta=0.70
     Davidson diagonalization with overlap
     ethr =  8.94E-09,  avg # of iterations =  3.0

     negative rho (up, down):  3.776E-03 0.000E+00

     total cpu time spent up to now is      753.3 secs

     total energy              =    -473.81836490 Ry
     Harris-Foulkes estimate   =    -473.81837866 Ry
     estimated scf accuracy    <       0.00018478 Ry

     iteration #  7     ecut=    30.00 Ry     beta=0.70
     Davidson diagonalization with overlap
     ethr =  8.94E-09,  avg # of iterations =  2.0

     negative rho (up, down):  3.776E-03 0.000E+00

     total cpu time spent up to now is      768.0 secs

     total energy              =    -473.81837165 Ry
     Harris-Foulkes estimate   =    -473.81837208 Ry
     estimated scf accuracy    <       0.00000135 Ry

     iteration #  8     ecut=    30.00 Ry     beta=0.70
     Davidson diagonalization with overlap
     ethr =  7.69E-10,  avg # of iterations =  3.0

     negative rho (up, down):  3.777E-03 0.000E+00

     total cpu time spent up to now is      785.7 secs

     total energy              =    -473.81837180 Ry
     Harris-Foulkes estimate   =    -473.81837215 Ry
     estimated scf accuracy    <       0.00000138 Ry

     iteration #  9     ecut=    30.00 Ry     beta=0.70
     Davidson diagonalization with overlap
     ethr =  7.69E-10,  avg # of iterations =  2.0

     negative rho (up, down):  3.777E-03 0.000E+00

     total cpu time spent up to now is      800.3 secs

     total energy              =    -473.81837195 Ry
     Harris-Foulkes estimate   =    -473.81837201 Ry
     estimated scf accuracy    <       0.00000020 Ry

     iteration # 10     ecut=    30.00 Ry     beta=0.70
     Davidson diagonalization with overlap
     ethr =  1.11E-10,  avg # of iterations =  2.7

     negative rho (up, down):  3.777E-03 0.000E+00

     total cpu time spent up to now is      816.5 secs

     total energy              =    -473.81837197 Ry
     Harris-Foulkes estimate   =    -473.81837200 Ry
     estimated scf accuracy    <       0.00000008 Ry

     iteration # 11     ecut=    30.00 Ry     beta=0.70
     Davidson diagonalization with overlap
     ethr =  4.44E-11,  avg # of iterations =  2.0

     negative rho (up, down):  3.777E-03 0.000E+00

     total cpu time spent up to now is      831.7 secs

     total energy              =    -473.81837198 Ry
     Harris-Foulkes estimate   =    -473.81837200 Ry
     estimated scf accuracy    <       0.00000006 Ry

     iteration # 12     ecut=    30.00 Ry     beta=0.70
     Davidson diagonalization with overlap
     ethr =  3.25E-11,  avg # of iterations =  2.0

     negative rho (up, down):  3.777E-03 0.000E+00

     total cpu time spent up to now is      846.3 secs

     End of self-consistent calculation

          k = 0.0000 0.0000 0.0000 ( 52087 PWs)   bands (ev):

   -12.9690 -12.4804 -12.4500 -11.6184 -11.3264 -11.3010 -11.2881 -11.2202
   -11.2018 -10.9577 -10.7944 -10.7782 -10.7678 -10.7418 -10.4233  -9.8660
    -9.8545  -9.7740  -9.5093  -9.3555  -9.2779  -9.2052  -9.0362  -8.7721
    -8.7295  -8.3322  -8.0735  -8.0575  -7.9220  -7.9117  -7.9069  -7.8776
    -7.8021  -7.4009  -7.3827  -7.3742  -7.0566  -6.4352  -6.3985  -6.3981
    -6.2693  -6.2538  -6.2386  -5.5197  -5.1470  -4.9093  -4.8078  -4.7852
    -4.7720  -4.7065  -4.6367  -4.6250  -4.5868  -4.5861  -4.5848  -4.5548
    -4.5161  -4.4747  -4.4641  -4.1487  -4.1211  -4.1185  -4.0824  -4.0712
    -4.0014  -3.9459  -3.8162  -3.7947  -3.3551  -3.2445  -3.1755  -3.1600
    -2.9132  -2.8695  -2.7000  -2.6412  -2.6233  -2.4724  -2.4283  -2.4260
    -2.4199  -2.3271  -2.3090  -2.3041  -2.2564  -2.0378  -2.0028  -1.9384
    -1.8927  -1.8573  -1.1949  -1.0830  -1.0607  -1.0001  -0.4551  -0.3084
    -0.1036   0.1806   0.1889   0.2369   0.2397   0.2621   0.3207   0.3813
     0.6477   0.7184

          k = 0.0000 0.5000 0.0000 ( 52005 PWs)   bands (ev):

   -12.8422 -12.3525 -12.3224 -11.9065 -11.5170 -11.4038 -11.3775 -11.1915
   -11.1121 -11.0940 -11.0383 -10.8226 -10.5557 -10.5391 -10.3185 -10.1496
    -9.8229  -9.7425  -9.7306  -9.6526  -9.6345  -9.0154  -8.8976  -8.8719
    -8.4516  -8.3194  -8.2960  -8.2744  -7.7937  -7.6721  -7.4873  -7.4405
    -7.4294  -7.1642  -7.1222  -7.1012  -6.9986  -6.2061  -6.1892  -5.9584
    -5.9312  -5.9312  -5.8462  -5.5758  -5.3782  -5.1734  -5.0357  -5.0328
    -4.9794  -4.9394  -4.9090  -4.8888  -4.8397  -4.8282  -4.6609  -4.5252
    -4.4497  -4.4381  -4.4335  -4.4087  -4.2439  -4.2389  -4.2298  -4.2043
    -3.8507  -3.7063  -3.7005  -3.6987  -3.6944  -3.6655  -3.5238  -3.5193
    -3.5120  -3.3676  -3.1932  -3.0565  -3.0420  -3.0407  -2.5836  -2.5313
    -2.4693  -2.3694  -2.3251  -2.3149  -2.3042  -1.9778  -1.9635  -1.8998
    -1.8295  -1.7884  -1.2781  -1.1590  -0.9772  -0.9019  -0.2168   0.3048
     0.3584   0.3746   0.4658   0.6066   0.6323   0.6585   0.8325   0.8471
     0.9420   1.0287

          k = 0.0000-1.0000 0.0000 ( 51922 PWs)   bands (ev):

   -12.4729 -12.4728 -11.9793 -11.9784 -11.9505 -11.9494 -11.2549 -11.2548
   -10.8259 -10.8243 -10.8088 -10.8069 -10.7924 -10.7922 -10.4258 -10.4258
   -10.0290 -10.0285  -9.3872  -9.3866  -9.3730  -9.3724  -9.3181  -9.3176
    -7.9069  -7.9054  -7.8949  -7.8935  -7.7814  -7.7813  -7.7606  -7.7606
    -7.0192  -7.0191  -6.2773  -6.2690  -6.2542  -6.2466  -6.0476  -6.0471
    -5.8029  -5.8026  -5.2414  -5.2390  -5.2330  -5.2311  -5.1800  -5.1797
    -5.1785  -5.1752  -5.1743  -5.1718  -4.8782  -4.8782  -4.7420  -4.7417
    -4.7365  -4.7352  -4.7130  -4.7121  -4.6225  -4.6217  -4.2875  -4.2870
    -4.1012  -4.0974  -4.0916  -4.0879  -4.0775  -4.0773  -3.5809  -3.5807
    -3.4453  -3.4410  -3.4363  -3.4319  -3.3902  -3.3901  -2.5101  -2.5097
    -2.1560  -2.1398  -2.0975  -2.0878  -2.0816  -2.0756  -2.0424  -2.0295
    -1.9994  -1.9992  -1.1714  -1.1528  -1.0764  -1.0574   0.0855   0.0855
     0.4976   0.4991   0.7830   0.7833   0.8933   0.8935   0.9751   0.9753
     1.1217   1.1235

          k =-0.5000 0.0000 0.0000 ( 51914 PWs)   bands (ev):

   -12.8411 -12.8408 -11.8804 -11.8796 -11.5103 -11.5098 -11.1707 -11.1703
   -11.1535 -11.1535 -10.8541 -10.8531 -10.2206 -10.2200 -10.1763 -10.1760
   -10.1141 -10.1134  -9.7725  -9.7723  -8.9580  -8.9569  -8.6700  -8.6693
    -8.4214  -8.4210  -8.3912  -8.3889  -7.9254  -7.9251  -7.8524  -7.8523
    -7.5838  -7.5826  -7.3765  -7.3764  -6.9154  -6.9130  -6.4176  -6.4172
    -6.3275  -6.3269  -5.4039  -5.4025  -5.2006  -5.1994  -5.0921  -5.0919
    -4.9897  -4.9878  -4.6425  -4.6424  -4.4933  -4.4929  -4.4121  -4.4109
    -4.3581  -4.3576  -4.0589  -4.0585  -4.0377  -4.0375  -4.0175  -4.0167
    -3.6306  -3.6294  -3.5443  -3.5433  -3.5002  -3.5000  -3.4581  -3.4579
    -3.3026  -3.3022  -3.0122  -3.0115  -2.5018  -2.4973  -2.4744  -2.4742
    -2.3769  -2.3761  -2.2642  -2.2642  -2.1253  -2.1188  -1.9410  -1.9393
    -1.7852  -1.7836  -1.5502  -1.5490  -0.3830  -0.3755  -0.1574  -0.1558
    -0.0461  -0.0348   0.0136   0.0140   0.4815   0.4816   0.4955   0.4971
     0.6026   0.6031

          k =-0.5000 0.5000 0.0000 ( 51960 PWs)   bands (ev):

   -12.7141 -12.7138 -11.7759 -11.7757 -11.7505 -11.7497 -11.4075 -11.4070
   -10.9125 -10.9121 -10.7810 -10.7806 -10.7319 -10.7309 -10.1041 -10.1035
   -10.0110 -10.0105  -9.6501  -9.6499  -9.2126  -9.2124  -8.9578  -8.9572
    -8.3354  -8.3347  -8.2715  -8.2711  -7.5944  -7.5933  -7.4573  -7.4570
    -7.4515  -7.4496  -7.1205  -7.1202  -6.8510  -6.8485  -5.9845  -5.9839
    -5.8500  -5.8497  -5.4525  -5.4515  -5.4296  -5.4289  -5.2614  -5.2603
    -5.0609  -5.0605  -4.9070  -4.9069  -4.6118  -4.6114  -4.4664  -4.4652
    -4.4170  -4.4164  -4.3349  -4.3347  -4.1017  -4.1005  -4.0556  -4.0544
    -3.9585  -3.9580  -3.6589  -3.6582  -3.6486  -3.6482  -3.5061  -3.5051
    -3.3922  -3.3915  -3.2687  -3.2679  -3.2145  -3.2143  -2.9791  -2.9790
    -2.4111  -2.4063  -2.3586  -2.3574  -2.0767  -2.0706  -1.9441  -1.9434
    -1.7172  -1.7155  -1.4923  -1.4911  -0.1983  -0.1925  -0.1671  -0.1591
     0.2812   0.2831   0.7591   0.7593   0.8611   0.8614   0.9557   0.9568
     1.0341   1.0355

          k =-0.5000-1.0000 0.0000 ( 52096 PWs)   bands (ev):

   -12.3440 -12.3439 -12.3437 -12.3435 -11.3707 -11.3704 -11.3695 -11.3691
   -11.1401 -11.1401 -11.1396 -11.1394 -10.3942 -10.3940 -10.3926 -10.3921
    -9.7641  -9.7640  -9.7637  -9.7633  -9.3082  -9.3080  -9.3079  -9.3076
    -7.8530  -7.8530  -7.8528  -7.8524  -7.7849  -7.7845  -7.7825  -7.7825
    -6.8336  -6.8322  -6.8259  -6.8250  -6.0296  -6.0291  -6.0281  -6.0278
    -5.6820  -5.6817  -5.6808  -5.6805  -5.1465  -5.1461  -5.1454  -5.1451
    -5.0796  -5.0795  -5.0762  -5.0762  -4.7015  -4.7015  -4.7013  -4.7009
    -4.6601  -4.6591  -4.6588  -4.6581  -4.4051  -4.4044  -4.4023  -4.4019
    -4.2264  -4.2264  -4.2240  -4.2235  -3.8712  -3.8711  -3.8679  -3.8677
    -3.3254  -3.3253  -3.3239  -3.3236  -3.2316  -3.2314  -3.2308  -3.2307
    -2.1795  -2.1727  -2.1652  -2.1603  -2.0232  -2.0217  -2.0199  -2.0165
    -1.7062  -1.7059  -1.7058  -1.7051  -0.1913  -0.1899  -0.1763  -0.1721
     0.8811   0.8817   0.8827   0.8827   1.0943   1.0945   1.0954   1.0956
     1.1571   1.1582

     the Fermi energy is    -1.9008 ev

!    total energy              =    -473.81837198 Ry
     Harris-Foulkes estimate   =    -473.81837199 Ry
     estimated scf accuracy    <       0.00000001 Ry

     The total energy is the sum of the following terms:

     one-electron contribution =   -2916.35599911 Ry
     hartree contribution      =    1489.43866328 Ry
     xc contribution           =    -254.95882106 Ry
     ewald contribution        =    1208.06181493 Ry
     smearing contrib. (-TS)   =      -0.00403004 Ry

     convergence has been achieved in  12 iterations

     negative rho (up, down):  3.777E-03 0.000E+00

     Forces acting on atoms (cartesian axes, Ry/au):

     atom    1 type  2   force =     0.00036152   -0.02385087    0.00761521
     atom    2 type  2   force =     0.00036153    0.02385088    0.00761521
     atom    3 type  2   force =    -0.00034426   -0.02384758    0.00760471
     atom    4 type  2   force =    -0.00034427    0.02384758    0.00760471
     atom    5 type  2   force =    -0.00030469   -0.02384970    0.00761684
     atom    6 type  2   force =    -0.00030469    0.02384971    0.00761686
     atom    7 type  2   force =     0.00031222   -0.02384588    0.00761723
     atom    8 type  2   force =     0.00031219    0.02384588    0.00761724
     atom    9 type  2   force =    -0.00029694   -0.02384634    0.00760348
     atom   10 type  2   force =    -0.00029695    0.02384636    0.00760360
     atom   11 type  2   force =     0.00031428   -0.02384558    0.00760140
     atom   12 type  2   force =     0.00031421    0.02384561    0.00760141
     atom   13 type  2   force =     0.00036517   -0.02384716    0.00761694
     atom   14 type  2   force =     0.00036515    0.02384717    0.00761693
     atom   15 type  2   force =    -0.00032654   -0.02385159    0.00761992
     atom   16 type  2   force =    -0.00032653    0.02385162    0.00761996
     atom   17 type  1   force =    -0.00092910    0.00000003   -0.00179510
     atom   18 type  1   force =     0.00091075    0.00000004   -0.00176653
     atom   19 type  1   force =    -0.00077540   -0.00000004   -0.00179913
     atom   20 type  1   force =     0.00074984    0.00000003   -0.00177082
     atom   21 type  1   force =    -0.00092099   -0.00000005   -0.00175693
     atom   22 type  1   force =     0.00088423    0.00000002   -0.00178931
     atom   23 type  1   force =    -0.00074984   -0.00000000   -0.00177176
     atom   24 type  1   force =     0.00074137    0.00000003   -0.00178230
     atom   25 type  1   force =    -0.00002657   -0.00000003   -0.00967169
     atom   26 type  1   force =     0.00000889    0.00000003   -0.00987350
     atom   27 type  1   force =    -0.00001470   -0.00000007   -0.00981687
     atom   28 type  1   force =     0.00002377   -0.00000003   -0.00979878
     atom   29 type  1   force =     0.00017670   -0.00000007   -0.00966696
     atom   30 type  1   force =     0.00007056    0.00000012   -0.00988356
     atom   31 type  1   force =     0.00002903   -0.00000002   -0.00983266
     atom   32 type  1   force =     0.00006924   -0.00000010   -0.00982696
     atom   33 type  1   force =    -0.00000435   -0.00014248    0.00090029
     atom   34 type  1   force =     0.00003721    0.00013080    0.00082833
     atom   35 type  1   force =     0.00002420   -0.00009339   -0.00101877
     atom   36 type  1   force =     0.00002427    0.00009334   -0.00101864
     atom   37 type  1   force =     0.00000148   -0.00003414   -0.00112517
     atom   38 type  1   force =     0.00000162    0.00003422   -0.00112503
     atom   39 type  1   force =     0.00003722   -0.00013072    0.00082837
     atom   40 type  1   force =    -0.00000430    0.00014240    0.00090035
     atom   41 type  1   force =     0.00274591   -0.00003319    0.00007832
     atom   42 type  1   force =     0.00255339   -0.00002865    0.00003640
     atom   43 type  1   force =    -0.00247711   -0.00001882    0.00004717
     atom   44 type  1   force =    -0.00247714    0.00001878    0.00004710
     atom   45 type  1   force =    -0.00256470    0.00000436    0.00001071
     atom   46 type  1   force =    -0.00256489   -0.00000433    0.00001055
     atom   47 type  1   force =     0.00255349    0.00002871    0.00003636
     atom   48 type  1   force =     0.00274579    0.00003305    0.00007826
     atom   49 type  1   force =     0.00562042    0.00000001   -0.00343912
     atom   50 type  1   force =    -0.00592969   -0.00000001   -0.00337480
     atom   51 type  1   force =     0.00855202   -0.00000001   -0.00362151
     atom   52 type  1   force =    -0.00776256   -0.00000007   -0.00373317
     atom   53 type  1   force =     0.00650151    0.00000008   -0.00362775
     atom   54 type  1   force =    -0.00624065    0.00000001   -0.00348911
     atom   55 type  1   force =     0.00746708   -0.00000002   -0.00357481
     atom   56 type  1   force =    -0.00924939    0.00000009   -0.00384313

     Total force =     0.024230     Total SCF correction =     0.000121

     number of scf cycles    =   3
     number of bfgs steps    =   2

     energy   old            =    -473.8177894600 Ry
     energy   new            =    -473.8183719827 Ry

     CASE: energy  _new < energy  _old

     new trust radius        =       0.0146037470 bohr
     new conv_thr            =       0.0000000117 Ry


ATOMIC_POSITIONS (alat)
H        0.000000000  -0.067550000  -0.067550000    0   0   0
H        0.000000000   0.067550000  -0.067550000    0   0   0
H        0.250000000  -0.067550000  -0.067550000    0   0   0
H        0.250000000   0.067550000  -0.067550000    0   0   0
H        0.250000000   0.182450000  -0.067550000    0   0   0
H        0.250000000   0.317550000  -0.067550000    0   0   0
H        0.500000000   0.182450000  -0.067550000    0   0   0
H        0.500000000   0.317550000  -0.067550000    0   0   0
H        0.750000000   0.182450000  -0.067550000    0   0   0
H        0.750000000   0.317550000  -0.067550000    0   0   0
H        0.000000000   0.182450000  -0.067550000    0   0   0
H        0.000000000   0.317550000  -0.067550000    0   0   0
H        0.500000000  -0.067550000  -0.067550000    0   0   0
H        0.500000000   0.067550000  -0.067550000    0   0   0
H        0.750000000  -0.067550000  -0.067550000    0   0   0
H        0.750000000   0.067550000  -0.067550000    0   0   0
Si       0.000000000   0.000000000   0.000000000    0   0   0
Si       0.250000000   0.000000000   0.000000000    0   0   0
Si       0.000000000   0.250000000   0.000000000    0   0   0
Si       0.250000000   0.250000000   0.000000000    0   0   0
Si       0.500000000   0.000000000   0.000000000    0   0   0
Si       0.750000000   0.000000000   0.000000000    0   0   0
Si       0.500000000   0.250000000   0.000000000    0   0   0
Si       0.750000000   0.250000000   0.000000000    0   0   0
Si       0.125000000   0.000000000   0.088388348    0   0   0
Si       0.375000000   0.000000000   0.088388348    0   0   0
Si       0.125000000   0.250000000   0.088388348    0   0   0
Si       0.375000000   0.250000000   0.088388348    0   0   0
Si       0.625000000   0.000000000   0.088388348    0   0   0
Si       0.875000000   0.000000000   0.088388348    0   0   0
Si       0.625000000   0.250000000   0.088388348    0   0   0
Si       0.875000000   0.250000000   0.088388348    0   0   0
Si       0.624989303   0.374975708   0.176707263
Si       0.125005292   0.125020749   0.176698866
Si       0.375000824   0.124979841   0.176615490
Si       0.375000821   0.375020179   0.176615476
Si       0.874989698   0.124992525   0.176603251
Si       0.874989689   0.375007478   0.176603257
Si       0.125005297   0.374979228   0.176698858
Si       0.624989305   0.125024298   0.176707255
Si       0.750387876   0.374994357   0.265409360
Si       0.250353445   0.124998510   0.265400296
Si       0.499658939   0.124996155   0.265404455
Si       0.499658936   0.375003849   0.265404478
Si      -0.000349812   0.125001321   0.265397728
Si      -0.000349773   0.374998671   0.265397760
Si       0.250353435   0.375001515   0.265400307
Si       0.750387896   0.125005652   0.265409361
Si       0.001543680   0.000000004   0.352963810
Si       0.248419629   0.000000020   0.352971614
Si       0.002863794   0.249999999   0.352949250
Si       0.247223434   0.250000007   0.352930723
Si       0.502646579  -0.000000003   0.352938061
Si       0.748383678  -0.000000011   0.352955228
Si       0.501745752   0.250000002   0.352945438
Si       0.746058706   0.249999995   0.352919374



     Writing output data file si.save
     Check: negative starting charge=   -0.004165
     NEW-OLD atomic charge density approx. for the potential

     Check: negative/imaginary core charge=   -0.000002    0.000000
     Check: negative starting charge=   -0.004164

     negative rho (up, down):  3.774E-03 0.000E+00

     total cpu time spent up to now is      852.2 secs

     per-process dynamical memory:   264.8 Mb

     Self-consistent Calculation

     iteration #  1     ecut=    30.00 Ry     beta=0.70
     Davidson diagonalization with overlap
     ethr =  1.00E-06,  avg # of iterations =  3.8

     negative rho (up, down):  3.776E-03 0.000E+00

     total cpu time spent up to now is      873.6 secs

     total energy              =    -473.81912126 Ry
     Harris-Foulkes estimate   =    -473.81929357 Ry
     estimated scf accuracy    <       0.00027949 Ry

     iteration #  2     ecut=    30.00 Ry     beta=0.70
     Davidson diagonalization with overlap
     ethr =  1.59E-07,  avg # of iterations =  3.3

     negative rho (up, down):  3.776E-03 0.000E+00

     total cpu time spent up to now is      892.9 secs

     total energy              =    -473.81901987 Ry
     Harris-Foulkes estimate   =    -473.81940857 Ry
     estimated scf accuracy    <       0.00112716 Ry

     iteration #  3     ecut=    30.00 Ry     beta=0.70
     Davidson diagonalization with overlap
     ethr =  1.59E-07,  avg # of iterations =  4.0

     negative rho (up, down):  3.777E-03 0.000E+00

     total cpu time spent up to now is      912.5 secs

     total energy              =    -473.81902746 Ry
     Harris-Foulkes estimate   =    -473.81942633 Ry
     estimated scf accuracy    <       0.00447673 Ry

     iteration #  4     ecut=    30.00 Ry     beta=0.70
     Davidson diagonalization with overlap
     ethr =  1.59E-07,  avg # of iterations =  2.0

     negative rho (up, down):  3.777E-03 0.000E+00

     total cpu time spent up to now is      927.9 secs

     total energy              =    -473.81919422 Ry
     Harris-Foulkes estimate   =    -473.81928879 Ry
     estimated scf accuracy    <       0.00079235 Ry

     iteration #  5     ecut=    30.00 Ry     beta=0.70
     Davidson diagonalization with overlap
     ethr =  1.59E-07,  avg # of iterations =  2.3

     negative rho (up, down):  3.777E-03 0.000E+00

     total cpu time spent up to now is      943.2 secs

     total energy              =    -473.81923677 Ry
     Harris-Foulkes estimate   =    -473.81924655 Ry
     estimated scf accuracy    <       0.00003653 Ry

     iteration #  6     ecut=    30.00 Ry     beta=0.70
     Davidson diagonalization with overlap
     ethr =  2.08E-08,  avg # of iterations =  3.0

     negative rho (up, down):  3.777E-03 0.000E+00

     total cpu time spent up to now is      959.5 secs

     total energy              =    -473.81923143 Ry
     Harris-Foulkes estimate   =    -473.81925752 Ry
     estimated scf accuracy    <       0.00033750 Ry

     iteration #  7     ecut=    30.00 Ry     beta=0.70
     Davidson diagonalization with overlap
     ethr =  2.08E-08,  avg # of iterations =  2.0

     negative rho (up, down):  3.777E-03 0.000E+00

     total cpu time spent up to now is      974.1 secs

     total energy              =    -473.81924433 Ry
     Harris-Foulkes estimate   =    -473.81924509 Ry
     estimated scf accuracy    <       0.00000244 Ry

     iteration #  8     ecut=    30.00 Ry     beta=0.70
     Davidson diagonalization with overlap
     ethr =  1.38E-09,  avg # of iterations =  3.2

     negative rho (up, down):  3.778E-03 0.000E+00

     total cpu time spent up to now is      992.0 secs

     total energy              =    -473.81924460 Ry
     Harris-Foulkes estimate   =    -473.81924526 Ry
     estimated scf accuracy    <       0.00000265 Ry

     iteration #  9     ecut=    30.00 Ry     beta=0.70
     Davidson diagonalization with overlap
     ethr =  1.38E-09,  avg # of iterations =  2.0

     negative rho (up, down):  3.778E-03 0.000E+00

     total cpu time spent up to now is     1006.6 secs

     total energy              =    -473.81924490 Ry
     Harris-Foulkes estimate   =    -473.81924502 Ry
     estimated scf accuracy    <       0.00000044 Ry

     iteration # 10     ecut=    30.00 Ry     beta=0.70
     Davidson diagonalization with overlap
     ethr =  2.51E-10,  avg # of iterations =  2.0

     negative rho (up, down):  3.778E-03 0.000E+00

     total cpu time spent up to now is     1022.1 secs

     total energy              =    -473.81924495 Ry
     Harris-Foulkes estimate   =    -473.81924499 Ry
     estimated scf accuracy    <       0.00000012 Ry

     iteration # 11     ecut=    30.00 Ry     beta=0.70
     Davidson diagonalization with overlap
     ethr =  6.71E-11,  avg # of iterations =  2.3

     negative rho (up, down):  3.778E-03 0.000E+00

     total cpu time spent up to now is     1038.0 secs

     total energy              =    -473.81924496 Ry
     Harris-Foulkes estimate   =    -473.81924499 Ry
     estimated scf accuracy    <       0.00000011 Ry

     iteration # 12     ecut=    30.00 Ry     beta=0.70
     Davidson diagonalization with overlap
[...]
     ethr =  2.25E-09,  avg # of iterations =  3.0

     negative rho (up, down):  4.000E-03 0.000E+00

     total cpu time spent up to now is    15410.1 secs

     total energy              =    -474.31012885 Ry
     Harris-Foulkes estimate   =    -474.31012973 Ry
     estimated scf accuracy    <       0.00000296 Ry

     iteration #  5     ecut=    30.00 Ry     beta=0.70
     Davidson diagonalization with overlap
     ethr =  1.68E-09,  avg # of iterations =  2.2

     negative rho (up, down):  4.000E-03 0.000E+00

     total cpu time spent up to now is    15425.6 secs

     total energy              =    -474.31012924 Ry
     Harris-Foulkes estimate   =    -474.31012935 Ry
     estimated scf accuracy    <       0.00000026 Ry

     iteration #  6     ecut=    30.00 Ry     beta=0.70
     Davidson diagonalization with overlap
     ethr =  1.47E-10,  avg # of iterations =  3.0

     negative rho (up, down):  4.000E-03 0.000E+00

     total cpu time spent up to now is    15443.8 secs

     total energy              =    -474.31012930 Ry
     Harris-Foulkes estimate   =    -474.31012933 Ry
     estimated scf accuracy    <       0.00000008 Ry

     iteration #  7     ecut=    30.00 Ry     beta=0.70
     Davidson diagonalization with overlap
     ethr =  4.42E-11,  avg # of iterations =  2.0

     negative rho (up, down):  4.000E-03 0.000E+00

     total cpu time spent up to now is    15460.3 secs

     total energy              =    -474.31012931 Ry
     Harris-Foulkes estimate   =    -474.31012932 Ry
     estimated scf accuracy    <       0.00000001 Ry

     iteration #  8     ecut=    30.00 Ry     beta=0.70
     Davidson diagonalization with overlap
     ethr =  8.18E-12,  avg # of iterations =  3.0

     negative rho (up, down):  4.000E-03 0.000E+00

     total cpu time spent up to now is    15478.0 secs

     total energy              =    -474.31012931 Ry
     Harris-Foulkes estimate   =    -474.31012931 Ry
     estimated scf accuracy    <          3.8E-09 Ry

     iteration #  9     ecut=    30.00 Ry     beta=0.70
     Davidson diagonalization with overlap
     ethr =  2.14E-12,  avg # of iterations =  2.3

     negative rho (up, down):  4.000E-03 0.000E+00

     total cpu time spent up to now is    15494.1 secs

     total energy              =    -474.31012931 Ry
     Harris-Foulkes estimate   =    -474.31012931 Ry
     estimated scf accuracy    <          1.6E-09 Ry

     iteration # 10     ecut=    30.00 Ry     beta=0.70
     Davidson diagonalization with overlap
     ethr =  9.00E-13,  avg # of iterations =  2.3

     negative rho (up, down):  4.000E-03 0.000E+00

     total cpu time spent up to now is    15509.8 secs

     End of self-consistent calculation

          k = 0.0000 0.0000 0.0000 ( 52087 PWs)   bands (ev):

   -13.1923 -12.9770 -12.2065 -11.8889 -11.4849 -11.3901 -11.1952 -11.1703
   -11.0769 -10.9223 -10.8256 -10.6892 -10.6366 -10.5083 -10.2887 -10.2593
   -10.1640  -9.9329  -9.8327  -9.6411  -9.3557  -9.3197  -9.1312  -9.1216
    -8.2557  -8.0504  -7.9964  -7.9763  -7.8949  -7.8888  -7.8827  -7.8433
    -7.7680  -7.4635  -7.2049  -7.0962  -6.6251  -6.5907  -6.3102  -6.2751
    -6.2153  -6.0797  -5.8195  -5.3811  -5.2945  -5.1350  -5.0806  -5.0343
    -4.9968  -4.9161  -4.8270  -4.7553  -4.5663  -4.4608  -4.4189  -4.3466
    -4.3340  -4.2857  -4.2061  -4.1934  -4.1099  -3.9665  -3.9557  -3.9429
    -3.8466  -3.8000  -3.6890  -3.5527  -3.5287  -3.4481  -3.3710  -3.3605
    -3.1162  -3.0862  -3.0108  -2.8498  -2.7931  -2.7345  -2.5616  -2.4613
    -2.3742  -2.3243  -2.3094  -2.2923  -2.2623  -2.1190  -2.1072  -1.9820
    -1.5623  -1.5499  -0.6874  -0.6615  -0.5162  -0.5030  -0.1877  -0.0427
     0.1332   0.2249   0.2578   0.3115   0.4711   0.4999   0.5216   0.7541
     0.7596   0.7679

          k = 0.0000 0.5000 0.0000 ( 52005 PWs)   bands (ev):

   -13.0577 -12.8393 -12.0855 -12.0298 -11.7764 -11.7761 -11.3709 -11.1724
   -11.0978 -11.0324 -10.8171 -10.6530 -10.6158 -10.3363 -10.1503 -10.1485
    -9.8418  -9.8055  -9.7529  -9.7479  -9.6528  -9.5112  -9.4555  -8.5426
    -8.5104  -8.4594  -8.1573  -8.0749  -7.9466  -7.8119  -7.4466  -7.3089
    -7.2593  -7.2133  -7.1915  -6.6628  -6.5551  -6.5284  -5.8109  -5.8031
    -5.7943  -5.7919  -5.7304  -5.5469  -5.4450  -5.3999  -5.3196  -5.1845
    -5.1525  -5.1157  -5.0448  -4.9090  -4.7749  -4.7474  -4.6871  -4.4958
    -4.4038  -4.3914  -4.3662  -4.3532  -4.2104  -4.0732  -3.9596  -3.9383
    -3.8698  -3.7559  -3.6030  -3.5750  -3.5146  -3.5095  -3.5019  -3.4953
    -3.4203  -3.3605  -3.2900  -3.1994  -3.1800  -3.1136  -2.9408  -2.8332
    -2.7247  -2.6866  -2.4332  -2.3703  -2.2957  -2.2495  -1.9311  -1.8827
    -0.9934  -0.9526  -0.6677  -0.6166  -0.2104  -0.1505  -0.0122   0.0647
     0.4029   0.4059   0.5277   0.7053   0.7086   0.8349   0.8542   1.0004
     1.0288   1.0659

          k = 0.0000-1.0000 0.0000 ( 51922 PWs)   bands (ev):

   -12.6616 -12.6608 -12.4320 -12.4310 -11.7186 -11.7186 -11.4649 -11.4641
   -11.0532 -11.0521 -10.6698 -10.6697 -10.5447 -10.5438 -10.2339 -10.2336
    -9.8632  -9.8630  -9.6687  -9.6680  -9.4795  -9.4788  -9.1297  -9.1296
    -8.2441  -8.2433  -8.1663  -8.1653  -7.8568  -7.8568  -7.4591  -7.4590
    -6.6449  -6.6447  -6.5286  -6.5270  -6.3136  -6.3134  -5.8548  -5.8527
    -5.6913  -5.6911  -5.5219  -5.5217  -5.4487  -5.4482  -5.1523  -5.1522
    -5.0912  -5.0906  -4.9731  -4.9723  -4.9036  -4.9034  -4.8083  -4.8076
    -4.6429  -4.6429  -4.5538  -4.5534  -4.4199  -4.4181  -4.2473  -4.2462
    -4.1955  -4.1954  -3.8386  -3.8376  -3.8320  -3.8304  -3.5329  -3.5322
    -3.4089  -3.4081  -3.2991  -3.2984  -3.2257  -3.2255  -3.1067  -3.1056
    -3.0430  -3.0423  -2.3579  -2.3572  -1.9248  -1.9207  -1.9059  -1.9025
    -0.7176  -0.7174  -0.6643  -0.6636   0.0260   0.0291   0.3529   0.3532
     0.4289   0.4290   0.4685   0.4686   1.0257   1.0272   1.1387   1.1396
     1.1677   1.1677

          k =-0.5000 0.0000 0.0000 ( 51914 PWs)   bands (ev):

   -13.1042 -13.1028 -11.9744 -11.9734 -11.5057 -11.5042 -11.2755 -11.2739
   -11.0705 -11.0696 -10.6930 -10.6920 -10.3143 -10.3142 -10.0635 -10.0632
   -10.0627 -10.0614  -9.9706  -9.9699  -9.8061  -9.8056  -8.4886  -8.4872
    -8.3184  -8.3174  -8.0836  -8.0826  -7.8630  -7.8619  -7.8460  -7.8450
    -7.7460  -7.7449  -7.1423  -7.1416  -6.5737  -6.5729  -6.2968  -6.2957
    -6.1635  -6.1624  -5.7220  -5.7204  -5.1083  -5.1061  -5.0640  -5.0623
    -4.9084  -4.9069  -4.7675  -4.7665  -4.5988  -4.5981  -4.3268  -4.3257
    -4.2991  -4.2986  -4.0977  -4.0960  -3.9736  -3.9724  -3.7879  -3.7869
    -3.7169  -3.7160  -3.6410  -3.6400  -3.4595  -3.4588  -3.3814  -3.3808
    -3.2429  -3.2417  -3.2234  -3.2222  -2.7868  -2.7846  -2.7793  -2.7766
    -2.3411  -2.3409  -2.3397  -2.3395  -2.0918  -2.0902  -2.0890  -2.0875
    -1.5427  -1.5423  -0.6715  -0.6699  -0.3309  -0.3295   0.0247   0.0264
     0.3064   0.3070   0.4886   0.4902   0.5264   0.5285   0.6187   0.6193
     0.8114   0.8123

          k =-0.5000 0.5000 0.0000 ( 51960 PWs)   bands (ev):

   -12.9687 -12.9673 -11.9356 -11.9343 -11.8503 -11.8493 -11.3906 -11.3890
   -11.0359 -11.0358 -10.6241 -10.6218 -10.5649 -10.5641  -9.9954  -9.9949
    -9.9502  -9.9495  -9.7275  -9.7272  -9.6888  -9.6885  -9.0308  -9.0301
    -8.3640  -8.3627  -8.0668  -8.0658  -7.8308  -7.8301  -7.5267  -7.5260
    -7.2623  -7.2616  -6.9108  -6.9097  -6.5238  -6.5233  -5.8647  -5.8641
    -5.7394  -5.7378  -5.7230  -5.7228  -5.4361  -5.4356  -5.2570  -5.2560
    -5.0248  -5.0236  -4.9081  -4.9070  -4.8572  -4.8564  -4.4358  -4.4350
    -4.3722  -4.3714  -4.3026  -4.3023  -3.9953  -3.9943  -3.9102  -3.9098
    -3.8411  -3.8398  -3.7105  -3.7094  -3.5981  -3.5967  -3.5123  -3.5113
    -3.3426  -3.3421  -3.2205  -3.2194  -3.1694  -3.1677  -3.0028  -3.0020
    -2.7701  -2.7689  -2.6780  -2.6760  -2.2507  -2.2503  -1.8864  -1.8855
    -0.9606  -0.9603  -0.6353  -0.6340  -0.0131  -0.0116   0.3418   0.3422
     0.5362   0.5383   0.7254   0.7274   0.8001   0.8017   0.8896   0.8911
     1.1821   1.1836

          k =-0.5000-1.0000 0.0000 ( 52096 PWs)   bands (ev):

   -12.5725 -12.5707 -12.5648 -12.5647 -11.5176 -11.5174 -11.4892 -11.4880
   -11.0837 -11.0831 -11.0382 -11.0360 -10.2793 -10.2791 -10.2613 -10.2612
    -9.6325  -9.6315  -9.5905  -9.5904  -9.5117  -9.5117  -9.4423  -9.4417
    -8.1947  -8.1939  -8.1641  -8.1634  -7.7364  -7.7362  -7.5416  -7.5416
    -6.6913  -6.6895  -6.6290  -6.6288  -6.1713  -6.1705  -6.0377  -6.0367
    -5.6312  -5.6304  -5.4974  -5.4969  -5.4323  -5.4308  -5.2765  -5.2762
    -5.1351  -5.1350  -4.8120  -4.8116  -4.7662  -4.7653  -4.7063  -4.7058
    -4.5521  -4.5505  -4.5384  -4.5363  -4.4176  -4.4164  -4.3493  -4.3486
    -4.0912  -4.0899  -4.0230  -4.0212  -3.7485  -3.7462  -3.6014  -3.6011
    -3.4639  -3.4631  -3.2438  -3.2432  -3.2249  -3.2245  -3.1550  -3.1539
    -3.0005  -2.9993  -2.7439  -2.7419  -1.9106  -1.9070  -1.8908  -1.8871
    -0.7150  -0.7146  -0.6611  -0.6606   0.4977   0.4996   0.5236   0.5241
     0.6605   0.6607   0.7187   0.7195   1.0061   1.0083   1.0750   1.0779
     1.1196   1.1205

     the Fermi energy is    -1.7136 ev

!    total energy              =    -474.31012931 Ry
     Harris-Foulkes estimate   =    -474.31012931 Ry
     estimated scf accuracy    <          1.5E-10 Ry

     The total energy is the sum of the following terms:

     one-electron contribution =   -2990.79640031 Ry
     hartree contribution      =    1527.12827045 Ry
     xc contribution           =    -255.81946822 Ry
     ewald contribution        =    1245.17747884 Ry
     smearing contrib. (-TS)   =      -0.00001008 Ry

     convergence has been achieved in  10 iterations

     negative rho (up, down):  4.000E-03 0.000E+00

     Forces acting on atoms (cartesian axes, Ry/au):

     atom    1 type  2   force =    -0.00208051   -0.02330281    0.00798063
     atom    2 type  2   force =    -0.00208048    0.02330281    0.00798064
     atom    3 type  2   force =     0.00174927   -0.02368576    0.00844904
     atom    4 type  2   force =     0.00174926    0.02368575    0.00844904
     atom    5 type  2   force =     0.00197049   -0.02330559    0.00799836
     atom    6 type  2   force =     0.00197046    0.02330560    0.00799836
     atom    7 type  2   force =    -0.00205253   -0.02330563    0.00798853
     atom    8 type  2   force =    -0.00205255    0.02330563    0.00798853
     atom    9 type  2   force =     0.00174254   -0.02368810    0.00845036
     atom   10 type  2   force =     0.00174256    0.02368811    0.00845036
     atom   11 type  2   force =    -0.00182700   -0.02369282    0.00844544
     atom   12 type  2   force =    -0.00182700    0.02369281    0.00844544
     atom   13 type  2   force =    -0.00181614   -0.02369140    0.00844376
     atom   14 type  2   force =    -0.00181615    0.02369140    0.00844375
     atom   15 type  2   force =     0.00197673   -0.02329961    0.00798157
     atom   16 type  2   force =     0.00197675    0.02329961    0.00798157
     atom   17 type  1   force =     0.00528474   -0.00000002   -0.00358736
     atom   18 type  1   force =    -0.00554125    0.00000004   -0.00149533
     atom   19 type  1   force =     0.00590670   -0.00000000   -0.00156665
     atom   20 type  1   force =    -0.00484856   -0.00000005   -0.00350397
     atom   21 type  1   force =     0.00589524   -0.00000001   -0.00150355
     atom   22 type  1   force =    -0.00487270    0.00000001   -0.00355969
     atom   23 type  1   force =     0.00522790   -0.00000002   -0.00353022
     atom   24 type  1   force =    -0.00552961   -0.00000004   -0.00154293
     atom   25 type  1   force =    -0.00655001    0.00000010   -0.03716922
     atom   26 type  1   force =    -0.00037786   -0.00000005    0.01397004
     atom   27 type  1   force =     0.00569388   -0.00000005   -0.03704618
     atom   28 type  1   force =    -0.00037794   -0.00000009    0.00544355
     atom   29 type  1   force =     0.00588826    0.00000007   -0.03667210
     atom   30 type  1   force =    -0.00055738   -0.00000003    0.00510656
     atom   31 type  1   force =    -0.00641989   -0.00000008   -0.03685408
     atom   32 type  1   force =    -0.00045685   -0.00000007    0.01364278
     atom   33 type  1   force =    -0.00005270    0.00013844   -0.00030661
     atom   34 type  1   force =     0.00022660   -0.00014896   -0.00003856
     atom   35 type  1   force =    -0.00004409   -0.00014928   -0.00014083
     atom   36 type  1   force =    -0.00004413    0.00014938   -0.00014086
     atom   37 type  1   force =     0.00019095    0.00006799    0.00003181
     atom   38 type  1   force =     0.00019094   -0.00006799    0.00003181
     atom   39 type  1   force =     0.00022660    0.00014890   -0.00003851
     atom   40 type  1   force =    -0.00005274   -0.00013840   -0.00030666
     atom   41 type  1   force =    -0.00023267   -0.00008047   -0.00017208
     atom   42 type  1   force =    -0.00004904   -0.00009104   -0.00011387
     atom   43 type  1   force =     0.00034458   -0.00002285   -0.00033789
     atom   44 type  1   force =     0.00034459    0.00002282   -0.00033783
     atom   45 type  1   force =     0.00035970    0.00009455   -0.00023608
     atom   46 type  1   force =     0.00035962   -0.00009446   -0.00023609
     atom   47 type  1   force =    -0.00004904    0.00009108   -0.00011387
     atom   48 type  1   force =    -0.00023269    0.00008044   -0.00017209
     atom   49 type  1   force =     0.00036801    0.00000012   -0.00000456
     atom   50 type  1   force =     0.00013983    0.00000011    0.00017880
     atom   51 type  1   force =    -0.00008820    0.00000004    0.00017140
     atom   52 type  1   force =     0.00017102    0.00000000    0.00011352
     atom   53 type  1   force =     0.00008798   -0.00000000    0.00015575
     atom   54 type  1   force =    -0.00019785    0.00000002    0.00017964
     atom   55 type  1   force =     0.00009037   -0.00000008    0.00027042
     atom   56 type  1   force =     0.00025201   -0.00000007   -0.00004382

     Total force =     0.001467     Total SCF correction =     0.000019

     bfgs converged in  64 scf cycles and  62 bfgs steps
     (criteria: energy <  5.0E-05 Ry, force <  5.0E-04 Ry/Bohr)

     End of BFGS Geometry Optimization

     Final energy   =    -474.3101293135 Ry
Begin final coordinates

ATOMIC_POSITIONS (alat)
H        0.000000000  -0.067550000  -0.067550000    0   0   0
H        0.000000000   0.067550000  -0.067550000    0   0   0
H        0.250000000  -0.067550000  -0.067550000    0   0   0
H        0.250000000   0.067550000  -0.067550000    0   0   0
H        0.250000000   0.182450000  -0.067550000    0   0   0
H        0.250000000   0.317550000  -0.067550000    0   0   0
H        0.500000000   0.182450000  -0.067550000    0   0   0
H        0.500000000   0.317550000  -0.067550000    0   0   0
H        0.750000000   0.182450000  -0.067550000    0   0   0
H        0.750000000   0.317550000  -0.067550000    0   0   0
H        0.000000000   0.182450000  -0.067550000    0   0   0
H        0.000000000   0.317550000  -0.067550000    0   0   0
H        0.500000000  -0.067550000  -0.067550000    0   0   0
H        0.500000000   0.067550000  -0.067550000    0   0   0
H        0.750000000  -0.067550000  -0.067550000    0   0   0
H        0.750000000   0.067550000  -0.067550000    0   0   0
Si       0.000000000   0.000000000   0.000000000    0   0   0
Si       0.250000000   0.000000000   0.000000000    0   0   0
Si       0.000000000   0.250000000   0.000000000    0   0   0
Si       0.250000000   0.250000000   0.000000000    0   0   0
Si       0.500000000   0.000000000   0.000000000    0   0   0
Si       0.750000000   0.000000000   0.000000000    0   0   0
Si       0.500000000   0.250000000   0.000000000    0   0   0
Si       0.750000000   0.250000000   0.000000000    0   0   0
Si       0.125000000   0.000000000   0.088388348    0   0   0
Si       0.375000000   0.000000000   0.088388348    0   0   0
Si       0.125000000   0.250000000   0.088388348    0   0   0
Si       0.375000000   0.250000000   0.088388348    0   0   0
Si       0.625000000   0.000000000   0.088388348    0   0   0
Si       0.875000000   0.000000000   0.088388348    0   0   0
Si       0.625000000   0.250000000   0.088388348    0   0   0
Si       0.875000000   0.250000000   0.088388348    0   0   0
Si       0.624718968   0.374978970   0.172669261
Si       0.124567620   0.125001833   0.172595439
Si       0.374702957   0.125684283   0.181623202
Si       0.374702967   0.374315687   0.181623186
Si       0.874652824   0.124324536   0.181541252
Si       0.874652838   0.375675436   0.181541228
Si       0.124567649   0.374998162   0.172595398
Si       0.624718955   0.125021031   0.172669300
Si       0.744980054   0.382623254   0.268039671
Si       0.244831384   0.132622082   0.267972694
Si       0.504381536   0.132621600   0.268072888
Si       0.504381560   0.367378535   0.268072820
Si       0.004261050   0.117304613   0.267999396
Si       0.004261105   0.382695001   0.267999306
Si       0.244831409   0.367377644   0.267972680
Si       0.744980043   0.117376833   0.268039708
Si       0.040910762  -0.000000225   0.363460230
Si       0.185912290  -0.000000170   0.313377013
Si       0.063114865   0.249999788   0.313182025
Si       0.207947125   0.249999875   0.363230803
Si       0.563321624   0.000000070   0.313372269
Si       0.708292833   0.000000026   0.363344560
Si       0.541136095   0.250000096   0.363358221
Si       0.686098807   0.250000061   0.313462590
End final coordinates



     Writing output data file si.save
 
     init_run     :      9.03s CPU      9.15s WALL (       1 calls)
     electrons    :  15044.04s CPU  15132.80s WALL (      64 calls)
     update_pot   :     27.49s CPU     28.56s WALL (      63 calls)
     forces       :    323.48s CPU    327.74s WALL (      64 calls)

     Called by init_run:
     wfcinit      :      8.28s CPU      8.32s WALL (       1 calls)
     potinit      :      0.19s CPU      0.21s WALL (       1 calls)

     Called by electrons:
     c_bands      :  13203.69s CPU  13246.69s WALL (     816 calls)
     sum_band     :   1661.35s CPU   1686.06s WALL (     816 calls)
     v_of_rho     :     48.94s CPU     50.76s WALL (     862 calls)
     newd         :    125.74s CPU    145.39s WALL (     862 calls)
     mix_rho      :     12.48s CPU     12.73s WALL (     816 calls)

     Called by c_bands:
     init_us_2    :    215.12s CPU    215.88s WALL (   10182 calls)
     cegterg      :  12215.15s CPU  12255.18s WALL (    4896 calls)

     Called by sum_band:
     sum_band:bec :      4.12s CPU      4.00s WALL (    4896 calls)
     addusdens    :    123.00s CPU    141.72s WALL (     816 calls)

     Called by *egterg:
     h_psi        :   7282.28s CPU   7309.15s WALL (   23345 calls)
     s_psi        :   2017.35s CPU   2020.92s WALL (   23345 calls)
     g_psi        :     41.52s CPU     41.45s WALL (   18443 calls)
     cdiaghg      :    767.44s CPU    768.80s WALL (   22853 calls)

     Called by h_psi:
     h_psi:pot    :   7216.28s CPU   7242.89s WALL (   23345 calls)
     h_psi:calbec :   1955.52s CPU   1962.65s WALL (   23345 calls)
     vloc_psi     :   3230.24s CPU   3246.91s WALL (   23345 calls)
     add_vuspsi   :   2030.27s CPU   2033.18s WALL (   23345 calls)

     General routines
     calbec       :   2890.33s CPU   2901.15s WALL (   29777 calls)
     fft          :     28.60s CPU     30.50s WALL (   11963 calls)
     fftw         :   3425.58s CPU   3439.02s WALL ( 3168660 calls)
     davcio       :      0.10s CPU      6.79s WALL (       6 calls)
 
     Parallel routines
     fft_scatter  :    879.11s CPU    888.59s WALL ( 3180623 calls)
 
     PWSCF        :     4h16m CPU        4h18m WALL

 
   This run was terminated on:   2:34:10  13Jul2019            

=------------------------------------------------------------------------------=
   JOB DONE.
=------------------------------------------------------------------------------=
