 ANIMSTEPS  10
 CRYSTAL 
 PRIMVEC 
 10.9388240296  0.0000000000  0.0000000000
  0.0000000000 10.9388240296  0.0000000000
  0.0000000000  0.0000000000 10.9388240296
 PRIMCOORD   1
   63  1
Si    0.0000001860   -0.0000003610    0.0000002625    0.0000000000    0.0000000000    0.0000000000
Si    5.4694124414   -0.0000001203    0.0000001969    0.0000000000    0.0000000000    0.0000000000
Si   -0.0000004922    5.4694122992   -0.0000007110    0.0000000000    0.0000000000    0.0000000000
Si    5.4694124742    5.4694123539   -0.0000002078    0.0000000000    0.0000000000    0.0000000000
Si    2.7387808178    2.7387805115   -0.0015328793    0.0000025331    0.0000025331   -0.0000077252
Si    8.2000437916    2.7387809381    0.0015321354   -0.0000025331    0.0000025331    0.0000077252
Si    2.7387811460    8.2000433540    0.0015326496    0.0000025331   -0.0000025331    0.0000077252
Si    8.2000434306    8.2000437369   -0.0015323761   -0.0000025331   -0.0000025331   -0.0000077252
Si    1.3679084006    1.3679076458    1.3679077880   -0.0000043165   -0.0000043165   -0.0000043165
Si    6.8375423095    1.3791649975    1.3791649975   -0.0000042198   -0.0000008737   -0.0000008737
Si    1.3791639802    6.8375418391    1.3791640349   -0.0000008737   -0.0000042198   -0.0000008737
Si    6.8348090583    6.8348085223    1.3733881279    0.0000011188    0.0000011188    0.0000029496
Si    4.1040157808    4.1040155292    1.3733875701   -0.0000011188   -0.0000011188    0.0000029496
Si    9.5596599619    4.1012823874    1.3791641771    0.0000008737    0.0000042198   -0.0000008737
Si    4.1012828359    9.5596589774    1.3791652491    0.0000042198    0.0000008737   -0.0000008737
Si    9.5709162306    9.5709159025    1.3679082803    0.0000043165    0.0000043165   -0.0000043165
Si    2.7387809053   -0.0015327808    2.7387808725    0.0000025331   -0.0000077252    0.0000025331
Si    8.2000436056    0.0015321792    2.7387809819   -0.0000025331    0.0000077252    0.0000025331
Si    2.7705992206    5.4728179599    2.7705999207    0.0000084307   -0.0000057071    0.0000084307
Si    8.1682244699    5.4660056541    2.7706006318   -0.0000084307    0.0000057071    0.0000084307
Si    5.4728191741    2.7706018350    2.7706015944   -0.0000057071    0.0000084307    0.0000084307
Si   -0.0015324636    2.7387801943    2.7387801615   -0.0000077252    0.0000025331    0.0000025331
Si    5.4660057744    8.1682227525    2.7706018788    0.0000057071   -0.0000084307    0.0000084307
Si    0.0015324417    8.2000432009    2.7387809600    0.0000077252   -0.0000025331    0.0000025331
Si    4.1040159448    1.3733878873    4.1040155510   -0.0000011188    0.0000029496   -0.0000011188
Si    9.5596595900    1.3791645490    4.1012823437    0.0000008737   -0.0000008737    0.0000042198
Si    4.1879069896    6.7509144694    4.1879098009    0.0000001947   -0.0000001947    0.0000001947
Si    9.5654364158    6.8348087411    4.1040160871   -0.0000029496    0.0000011188   -0.0000011188
Si    6.7509148522    4.1879120762    4.1879114964   -0.0000001947    0.0000001947    0.0000001947
Si    1.3733869794    4.1040150260    4.1040156057    0.0000029496   -0.0000011188   -0.0000011188
Si    6.8348093974    9.5654356938    4.1040164808    0.0000011188   -0.0000029496   -0.0000011188
Si    1.3791641333    9.5596596556    4.1012824749   -0.0000008737    0.0000008737    0.0000042198
Si   -0.0000004922   -0.0000001203    5.4694121570    0.0000000000    0.0000000000    0.0000000000
Si    5.4694125399    0.0000000438    5.4694123102    0.0000000000    0.0000000000    0.0000000000
Si   -0.0000000656    5.4694119929    5.4694124414    0.0000000000    0.0000000000    0.0000000000
Si    2.7705998551    2.7705999536    5.4728182552    0.0000084307    0.0000084307   -0.0000057071
Si    8.1682241526    2.7706012990    5.4660053915   -0.0000084307    0.0000084307    0.0000057071
Si    2.7705994722    8.1682241089    5.4660063651    0.0000084307   -0.0000084307    0.0000057071
Si    8.1682230916    8.1682221727    5.4728197648   -0.0000084307   -0.0000084307   -0.0000057071
Si    1.3791641771    1.3791641552    6.8375420360   -0.0000008737   -0.0000008737   -0.0000042198
Si    6.8348092880    1.3733884233    6.8348083364    0.0000011188    0.0000029496    0.0000011188
Si    1.3733870888    6.8348087192    6.8348092771    0.0000029496    0.0000011188    0.0000011188
Si    6.7509105424    6.7509090219    6.7509085405   -0.0000001947   -0.0000001947   -0.0000001947
Si    4.1879079194    4.1879098774    6.7509143600    0.0000001947    0.0000001947   -0.0000001947
Si    9.5654361861    4.1040159120    6.8348092005   -0.0000029496   -0.0000011188    0.0000011188
Si    4.1040160105    9.5654361095    6.8348089599   -0.0000011188   -0.0000029496    0.0000011188
Si    9.5596592728    9.5596592290    6.8375419375    0.0000008737    0.0000008737   -0.0000042198
Si    2.7387810475    0.0015327699    8.2000436603    0.0000025331    0.0000077252   -0.0000025331
Si    8.2000436494   -0.0015323980    8.2000434634   -0.0000025331   -0.0000077252   -0.0000025331
Si    2.7706000301    5.4660060150    8.1682240542    0.0000084307    0.0000057071   -0.0000084307
Si    8.1682227525    5.4728201695    8.1682218883   -0.0000084307   -0.0000057071   -0.0000084307
Si    5.4660062119    2.7706017256    8.1682228509    0.0000057071    0.0000084307   -0.0000084307
Si    0.0015324746    2.7387806428    8.2000435728    0.0000077252    0.0000025331   -0.0000025331
Si    5.4728198851    8.1682215711    8.1682213195   -0.0000057071   -0.0000084307   -0.0000084307
Si   -0.0015326277    8.2000439557    8.2000439775   -0.0000077252   -0.0000025331   -0.0000025331
Si    4.1012830547    1.3791649865    9.5596591743    0.0000042198   -0.0000008737    0.0000008737
Si    9.5709164275    1.3679077443    9.5709162525    0.0000043165   -0.0000043165    0.0000043165
Si    4.1040161089    6.8348089708    9.5654357485   -0.0000011188    0.0000011188   -0.0000029496
Si    9.5596589009    6.8375421782    9.5596590978    0.0000008737   -0.0000042198    0.0000008737
Si    6.8348095287    4.1040165684    9.5654355735    0.0000011188   -0.0000011188   -0.0000029496
Si    1.3791643193    4.1012822343    9.5596596228   -0.0000008737    0.0000042198    0.0000008737
Si    6.8375417406    9.5596589118    9.5596587587   -0.0000042198    0.0000008737    0.0000008737
Si    1.3679084772    9.5709162088    9.5709162963   -0.0000043165    0.0000043165    0.0000043165
 PRIMCOORD   2
   63  1
Si    0.0052159634    0.0052154647   -0.0052157944    0.0000259656    0.0000259656   -0.0000259656
Si    5.4724693576    0.0195333577   -0.0195335125    0.0001389198   -0.0001592728    0.0001592728
Si    0.0195332605    5.4724694081   -0.0195339771   -0.0001592728    0.0001389198    0.0001592728
Si    5.4744254288    5.4744255253   -0.0074860987    0.0000359715    0.0000359715    0.0000391010
Si    2.7515634629    2.7515632530   -0.0268788135   -0.0001735249   -0.0001735249    0.0004386292
Si    8.2134780430    2.7394612254   -0.0059089076   -0.0001235165    0.0001178630    0.0000594655
Si    2.7394614910    8.2134778463   -0.0059087645    0.0001178630   -0.0001235165    0.0000594655
Si    8.1985015436    8.1985018403    0.0080015992    0.0001183408    0.0001183408   -0.0003887057
Si    1.3798650390    1.3798644288    1.3469719575   -0.0000312437   -0.0000312437    0.0001919690
Si    6.8515882501    1.3741368317    1.3673619141   -0.0000202827    0.0002697392   -0.0000689659
Si    1.3741364408    6.8515881797    1.3673613128    0.0002697392   -0.0000202827   -0.0000689659
Si    6.8301015299    6.8301014179    1.3830412289    0.0003408340    0.0003408340   -0.0004964834
Si    4.1083737975    4.1083736809    1.3633744463    0.0001580573    0.0001580573   -0.0001193289
Si    9.5694613405    4.1091948236    1.3693626636    0.0001824664    0.0000145127   -0.0001824664
Si    4.1091950552    9.5694607174    1.3693632248    0.0000145127    0.0001824664   -0.0001824664
Si    9.5738551736    9.5738549948    1.3649691446    0.0001702987    0.0001702987   -0.0001702987
Si    2.7394612841    0.0059083152    2.7253463272    0.0001178630   -0.0000594655    0.0001235165
Si    8.1985015596   -0.0080018443    2.7403227532    0.0001183408    0.0003887057   -0.0001183408
Si    2.7570879391    5.4754375130    2.7493323431    0.0003347665    0.0000376336    0.0002195187
Si    8.1608876837    5.4548051898    2.7779369313    0.0005736597    0.0003979485   -0.0005736597
Si    5.4754380622    2.7570893344    2.7493333036    0.0000376336    0.0003347665    0.0002195187
Si    0.0059086228    2.7394607273    2.7253458956   -0.0000594655    0.0001178630    0.0001235165
Si    5.4548050885    8.1608867805    2.7779377062    0.0003979485    0.0005736597   -0.0005736597
Si   -0.0080015432    8.1985014777    2.7403226928    0.0003887057    0.0001183408   -0.0001183408
Si    4.1068789181    1.3764895403    4.0934385818    0.0001353827    0.0002146981    0.0000635669
Si    9.5714623168    1.3741365760    4.0872362199    0.0000689659    0.0002697392    0.0000202827
Si    4.1443675685    6.7519568826    4.1868672527    0.0008692990    0.0008544733   -0.0008544733
Si    9.5557831028    6.8301014825    4.1087232156    0.0004964834    0.0003408340   -0.0003408340
Si    6.7519571498    4.1443703182    4.1868681195    0.0008544733    0.0008692990   -0.0008544733
Si    1.3764889745    4.1068785919    4.0934385353    0.0002146981    0.0001353827    0.0000635669
Si    6.8301015462    9.5557827856    4.1087235226    0.0003408340    0.0004964834   -0.0003408340
Si    1.3741365988    9.5714622476    4.0872363463    0.0002697392    0.0000689659    0.0000202827
Si    0.0195332508    0.0195332855    5.4663550433   -0.0001592728   -0.0001592728   -0.0001389198
Si    5.4744253114    0.0074861996    5.4643992110    0.0000359715   -0.0000391010   -0.0000359715
Si    0.0074860228    5.4744252222    5.4643992122   -0.0000391010    0.0000359715   -0.0000359715
Si    2.8248557398    2.8248559106    5.4593839281   -0.0011732906   -0.0011732906    0.0001018949
Si    8.1894915327    2.7570890683    5.4633863347   -0.0002195187    0.0003347665   -0.0000376336
Si    2.7570881762    8.1894914119    5.4633869565    0.0003347665   -0.0002195187   -0.0000376336
Si    8.1608867583    8.1608864080    5.4840198677    0.0005736597    0.0005736597   -0.0003979485
Si    1.4175313359    1.4175313044    6.8130426028   -0.0005082789   -0.0005082789    0.0002957674
Si    6.8453856598    1.3764900233    6.8319453680   -0.0000635669    0.0002146981   -0.0001353827
Si    1.3764893248    6.8453853174    6.8319459040    0.0002146981   -0.0000635669   -0.0001353827
Si    6.7519545890    6.7519537960    6.7944517585    0.0008544733    0.0008544733   -0.0008692990
Si    4.3176466227    4.3176476316    6.6211763312   -0.0033758820   -0.0033758820    0.0033758820
Si    9.5754493435    4.1083738662    6.8304508224    0.0001193289    0.0001580573   -0.0001580573
Si    4.1083738923    9.5754493200    6.8304506974    0.0001580573    0.0001193289   -0.0001580573
Si    9.5694609357    9.5694608582    6.8296295544    0.0001824664    0.0001824664   -0.0000145127
Si    2.7515637360    0.0268788920    8.1872607213   -0.0001735249   -0.0004386292    0.0001735249
Si    8.2134778478    0.0059086932    8.1993629738   -0.0001235165   -0.0000594655   -0.0001178630
Si    2.8248562184    5.4794397591    8.1139681694   -0.0011732906   -0.0001018949    0.0011732906
Si    8.1894908649    5.4754387397    8.1817344853   -0.0002195187    0.0000376336   -0.0003347665
Si    5.4794400428    2.8248572008    8.1139676070   -0.0001018949   -0.0011732906    0.0011732906
Si    0.0268786352    2.7515633794    8.1872607446   -0.0004386292   -0.0001735249    0.0001735249
Si    5.4754383589    8.1894900931    8.1817341333    0.0000376336   -0.0002195187   -0.0003347665
Si    0.0059087719    8.2134781348    8.1993632277   -0.0000594655   -0.0001235165   -0.0001178630
Si    4.1257820108    1.4175318273    9.5212923287   -0.0002957674   -0.0005082789    0.0005082789
Si    9.5918521617    1.3798645995    9.5589592672   -0.0001919690   -0.0000312437    0.0000312437
Si    4.1068790629    6.8453856027    9.5623342256    0.0001353827   -0.0000635669   -0.0002146981
Si    9.5714620324    6.8515883598    9.5646870804    0.0000689659   -0.0000202827   -0.0002697392
Si    6.8453860257    4.1068795368    9.5623342626   -0.0000635669    0.0001353827   -0.0002146981
Si    1.4175314251    4.1257814747    9.5212925941   -0.0005082789   -0.0002957674    0.0005082789
Si    6.8515878355    9.5714618988    9.5646868232   -0.0000202827    0.0000689659   -0.0002697392
Si    1.3798652601    9.5918520923    9.5589591857   -0.0000312437   -0.0001919690    0.0000312437
 PRIMCOORD   3
   63  1
Si    0.0050574720    0.0050569815   -0.0050573506   -0.0000500090   -0.0000500090    0.0000500090
Si    5.4666906953    0.0268423790   -0.0268425730    0.0001635966   -0.0000167635    0.0000167635
Si    0.0268423284    5.4666907786   -0.0268429622   -0.0000167635    0.0001635966    0.0000167635
Si    5.4734313174    5.4734314508   -0.0076090548   -0.0000275913   -0.0000275913    0.0000925038
Si    2.7560794579    2.7560792644   -0.0399569036   -0.0002150285   -0.0002150285    0.0004316991
Si    8.2160597289    2.7333085959   -0.0053901399   -0.0001576212    0.0002150935    0.0001193863
Si    2.7333088714    8.2160595732   -0.0053900599    0.0002150935   -0.0001576212    0.0001193863
Si    8.1925514914    8.1925517864    0.0209080209   -0.0000112717   -0.0000112717   -0.0004038871
Si    1.3839941510    1.3839935654    1.3377394572   -0.0000617966   -0.0000617966    0.0000730920
Si    6.8548849533    1.3647409694    1.3650159996    0.0001027237    0.0002583692   -0.0002161010
Si    1.3647406851    6.8548849509    1.3650154598    0.0002583692    0.0001027237   -0.0002161010
Si    6.8213145515    6.8213145117    1.3974119297    0.0003906308    0.0003906308   -0.0006202056
Si    4.1068592636    4.1068591699    1.3621207177    0.0002136802    0.0002136802   -0.0002682544
Si    9.5650645477    4.1093210439    1.3737594334    0.0005151285   -0.0001013372   -0.0005151285
Si    4.1093212386    9.5650639861    1.3737599077   -0.0001013372    0.0005151285   -0.0005151285
Si    9.5722203794    9.5722202260    1.3666039060    0.0002172050    0.0002172050   -0.0002172050
Si    2.7333086702    0.0053895565    2.7227645912    0.0002150935   -0.0001193863    0.0001576212
Si    8.1925514803   -0.0209082742    2.7462727858   -0.0000112717    0.0004038871    0.0000112717
Si    2.7420802865    5.4717184520    2.7411058395    0.0003762948   -0.0000819715    0.0002440896
Si    8.1392345704    5.4391894959    2.7995899617    0.0010105765    0.0004816201   -0.0010105765
Si    5.4717188881    2.7420814744    2.7411066787   -0.0000819715    0.0003762948    0.0002440896
Si    0.0053898625    2.7333081396    2.7227642072   -0.0001193863    0.0002150935    0.0001576212
Si    5.4391893569    8.1392338059    2.7995906562    0.0004816201    0.0010105765   -0.0010105765
Si   -0.0209079665    8.1925514534    2.7462727188    0.0004038871   -0.0000112717    0.0000112717
Si    4.1031350103    1.3752351282    4.0924228479    0.0001596160    0.0002948185    0.0000692768
Si    9.5738081707    1.3647407464    4.0839394856    0.0002161010    0.0002583692   -0.0001027237
Si    4.1112747367    6.7245328544    4.2142912580    0.0008620954    0.0019305376   -0.0019305376
Si    9.5414123659    6.8213145500    4.1175101259    0.0006202056    0.0003906308   -0.0003906308
Si    6.7245331019    4.1112770887    4.2142919837    0.0019305376    0.0008620954   -0.0019305376
Si    1.3752346206    4.1031347849    4.0924227842    0.0002948185    0.0001596160    0.0000692768
Si    6.8213145129    9.5414121176    4.1175104182    0.0003906308    0.0006202056   -0.0003906308
Si    1.3647408438    9.5738080784    4.0839396112    0.0002583692    0.0002161010   -0.0001027237
Si    0.0268423171    0.0268422944    5.4721336720   -0.0000167635   -0.0000167635   -0.0001635966
Si    5.4734311688    0.0076092008    5.4653932978   -0.0000275913   -0.0000925038    0.0000275913
Si    0.0076090125    5.4734311575    5.4653932769   -0.0000925038   -0.0000275913    0.0000275913
Si    2.8733524583    2.8733526413    5.4560363909   -0.0015810433   -0.0015810433    0.0001153816
Si    8.1977180027    2.7420812541    5.4671054802   -0.0002440896    0.0003762948    0.0000819715
Si    2.7420805212    8.1977178687    5.4671060421    0.0003762948   -0.0002440896    0.0000819715
Si    8.1392337222    8.1392334686    5.4996355001    0.0010105765    0.0010105765   -0.0004816201
Si    1.4457232141    1.4457231809    6.7997400131   -0.0004925845   -0.0004925845    0.0003582646
Si    6.8464012920    1.3752356021    6.8356892766   -0.0000692768    0.0002948185   -0.0001596160
Si    1.3752350119    6.8464009882    6.8356897437    0.0002948185   -0.0000692768   -0.0001596160
Si    6.7245308388    6.7245301696    6.8275452364    0.0019305376    0.0019305376   -0.0008620954
Si    4.4640465742    4.4640474215    6.4747764946   -0.0070048680   -0.0070048680    0.0070048680
Si    9.5767030779    4.1068593216    6.8319652948    0.0002682544    0.0002136802   -0.0002136802
Si    4.1068593355    9.5767030633    6.8319651894    0.0002136802    0.0002682544   -0.0002136802
Si    9.5650641913    9.5650641080    6.8295033431    0.0005151285    0.0005151285    0.0001013372
Si    2.7560797384    0.0399570141    8.1827446763   -0.0002150285   -0.0004316991    0.0002150285
Si    8.2160595247    0.0053899338    8.2055155688   -0.0001576212   -0.0001193863   -0.0002150935
Si    2.8733529886    5.4827871971    8.0654714510   -0.0015810433   -0.0001153816    0.0015810433
Si    8.1977174596    5.4717195114    8.1967423617   -0.0002440896   -0.0000819715   -0.0003762948
Si    5.4827874955    2.8733538496    8.0654709976   -0.0001153816   -0.0015810433    0.0015810433
Si    0.0399567638    2.7560793900    8.1827447184   -0.0004316991   -0.0002150285    0.0002150285
Si    5.4717191142    8.1977167574    8.1967420466   -0.0000819715   -0.0002440896   -0.0003762948
Si    0.0053900649    8.2160598084    8.2055157785   -0.0001193863   -0.0001576212   -0.0002150935
Si    4.1390845194    1.4457236514    9.4931005038   -0.0003582646   -0.0004925845    0.0004925845
Si    9.6010846456    1.3839937484    9.5548300962   -0.0000730920   -0.0000617966    0.0000617966
Si    4.1031351518    6.8464012793    9.5635886599    0.0001596160   -0.0000692768   -0.0002948185
Si    9.5738079551    6.8548851039    9.5740829116    0.0002161010    0.0001027237   -0.0002583692
Si    6.8464016793    4.1031356281    9.5635887329   -0.0000692768    0.0001596160   -0.0002948185
Si    1.4457232943    4.1390840316    9.4931007381   -0.0004925845   -0.0003582646    0.0004925845
Si    6.8548845649    9.5738077969    9.5740826683    0.0001027237    0.0002161010   -0.0002583692
Si    1.3839943967    9.6010846016    9.5548299933   -0.0000617966   -0.0000730920    0.0000617966
 PRIMCOORD   4
   63  1
Si    0.0037087027    0.0037082109   -0.0037085739   -0.0001948484   -0.0001948484    0.0001948484
Si    5.4627889267    0.0272090411   -0.0272092292   -0.0001448062    0.0000623396   -0.0000623396
Si    0.0272089834    5.4627890050   -0.0272096300    0.0000623396   -0.0001448062   -0.0000623396
Si    5.4712716688    5.4712717965   -0.0049222215   -0.0002161381   -0.0002161381    0.0000968298
Si    2.7573079418    2.7573077458   -0.0452653180   -0.0002156910   -0.0002156910    0.0003737398
Si    8.2153799178    2.7272309918   -0.0029935046   -0.0002347799   -0.0000291696    0.0002362257
Si    2.7272312658    8.2153797559   -0.0029934149   -0.0000291696   -0.0002347799    0.0002362257
Si    8.1882586792    8.1882589745    0.0293129717   -0.0002378825   -0.0002378825   -0.0001657144
Si    1.3850384680    1.3850378786    1.3347712986    0.0000486243    0.0000486243   -0.0000936922
Si    6.8531050869    1.3586623854    1.3659083798    0.0004409542    0.0001967564   -0.0003687256
Si    1.3586620847    6.8531050740    1.3659078306    0.0001967564    0.0004409542   -0.0003687256
Si    6.8152848561    6.8152848052    1.4079262520    0.0003453304    0.0003453304   -0.0005210974
Si    4.1042443950    4.1042442978    1.3644819551    0.0003045445    0.0003045445   -0.0002911586
Si    9.5561340997    4.1085205615    1.3826898850    0.0005428086   -0.0000335001   -0.0005428086
Si    4.1085207619    9.5561335286    1.3826903727   -0.0000335001    0.0005428086   -0.0005428086
Si    9.5701216791    9.5701215218    1.3687026114    0.0002938182    0.0002938182   -0.0002938182
Si    2.7272310638    0.0029929198    2.7234444100   -0.0000291696   -0.0002362257    0.0002347799
Si    8.1882586724   -0.0293132237    2.7505656009   -0.0002378825    0.0001657144    0.0002378825
Si    2.7319696462    5.4699941844    2.7386685061    0.0000414202   -0.0004541701    0.0003048604
Si    8.1179750417    5.4291180131    2.8208495032    0.0004295970    0.0000403741   -0.0004295970
Si    5.4699946380    2.7319708660    2.7386693639   -0.0004541701    0.0000414202    0.0003048604
Si    0.0029932260    2.7272305291    2.7234440187   -0.0002362257   -0.0000291696    0.0002347799
Si    5.4291178799    8.1179742558    2.8208502101    0.0000403741    0.0004295970   -0.0004295970
Si   -0.0293129171    8.1882586369    2.7505655350    0.0001657144   -0.0002378825    0.0002378825
Si    4.1004209306    1.3738183173    4.0937304872    0.0003303785    0.0003770277   -0.0001317361
Si    9.5729157998    1.3586621574    4.0857193568    0.0003687256    0.0001967564   -0.0004409542
Si    4.0923194902    6.6861267363    4.2526973797    0.0006290035    0.0012735149   -0.0012735149
Si    9.5308980492    6.8152848475    4.1235398318    0.0005210974    0.0003453304   -0.0003453304
Si    6.6861269868    4.0923219034    4.2526981271    0.0012735149    0.0006290035   -0.0012735149
Si    1.3738178007    4.1004206898    4.0937304262    0.0003770277    0.0003303785   -0.0001317361
Si    6.8152848259    9.5308977902    4.1235401264    0.0003453304    0.0005210974   -0.0003453304
Si    1.3586622433    9.5729157111    4.0857194825    0.0001967564    0.0003687256   -0.0004409542
Si    0.0272089724    0.0272089585    5.4760354457    0.0000623396    0.0000623396    0.0001448062
Si    5.4712715250    0.0049223605    5.4675529502   -0.0002161381   -0.0000968298    0.0002161381
Si    0.0049221740    5.4712715017    5.4675529327   -0.0000968298   -0.0002161381    0.0002161381
Si    2.9061125521    2.9061127333    5.4542365396   -0.0003173105   -0.0003173105    0.0001757804
Si    8.2001553413    2.7319706387    5.4688297347   -0.0003048604    0.0000414202    0.0004541701
Si    2.7319698813    8.2001552093    5.4688303059    0.0000414202   -0.0003048604    0.0004541701
Si    8.1179741815    8.1179739131    5.5097069923    0.0004295970    0.0004295970   -0.0000403741
Si    1.4617494793    1.4617494464    6.7944104684    0.0000333649    0.0000333649    0.0000392400
Si    6.8450936684    1.3738187927    6.8384033561    0.0001317361    0.0003770277   -0.0003303785
Si    1.3738181857    6.8450933586    6.8384038338    0.0003770277    0.0001317361   -0.0003303785
Si    6.6861246778    6.6861239897    6.8465003835    0.0012735149    0.0012735149   -0.0006290035
Si    4.6240270643    4.6240279365    6.3147959868   -0.0063379033   -0.0063379033    0.0063379033
Si    9.5743418397    4.1042444546    6.8345801729    0.0002911586    0.0003045445   -0.0003045445
Si    4.1042444704    9.5743418237    6.8345800645    0.0003045445    0.0002911586   -0.0003045445
Si    9.5561337357    9.5561336534    6.8303038241    0.0005428086    0.0005428086    0.0000335001
Si    2.7573082212    0.0452654235    8.1815162000   -0.0002156910   -0.0003737398    0.0002156910
Si    8.2153797150    0.0029932972    8.2115931782   -0.0002347799   -0.0002362257    0.0000291696
Si    2.9061130744    5.4845870637    8.0327113571   -0.0003173105   -0.0001757804    0.0003173105
Si    8.2001547790    5.4699952696    8.2068529676   -0.0003048604   -0.0004541701   -0.0000414202
Si    5.4845873598    2.9061139541    8.0327108870   -0.0001757804   -0.0003173105    0.0003173105
Si    0.0452651723    2.7573078715    8.1815162393   -0.0003737398   -0.0002156910    0.0002156910
Si    5.4699948750    8.2001540661    8.2068526468   -0.0004541701   -0.0003048604   -0.0000414202
Si    0.0029934202    8.2153799992    8.2115933947   -0.0002362257   -0.0002347799    0.0000291696
Si    4.1444140766    1.4617499250    9.4770742303   -0.0000392400    0.0000333649   -0.0000333649
Si    9.6040528067    1.3850380598    9.5537857882    0.0000936922    0.0000486243   -0.0000486243
Si    4.1004210727    6.8450936488    9.5650054674    0.0003303785    0.0001317361   -0.0003770277
Si    9.5729155737    6.8531052312    9.5801615004    0.0003687256    0.0004409542   -0.0001967564
Si    6.8450940523    4.1004215486    9.5650055349    0.0001317361    0.0003303785   -0.0003770277
Si    1.4617495609    4.1444135814    9.4770744694    0.0000333649   -0.0000392400   -0.0000333649
Si    6.8531046945    9.5729154193    9.5801612550    0.0004409542    0.0003687256   -0.0001967564
Si    1.3850387100    9.6040527588    9.5537856887    0.0000486243    0.0000936922   -0.0000486243
 PRIMCOORD   5
   63  1
Si    0.0027462832    0.0027457908   -0.0027461510   -0.0001523233   -0.0001523233    0.0001523233
Si    5.4625286400    0.0214816777   -0.0214818629    0.0000796149   -0.0000939763    0.0000939763
Si    0.0214816166    5.4625287159   -0.0214822692   -0.0000939763    0.0000796149    0.0000939763
Si    5.4693496787    5.4693498038   -0.0010776322   -0.0002590069   -0.0002590069    0.0001639474
Si    2.7578664316    2.7578662343   -0.0457271517   -0.0001405941   -0.0001405941    0.0002177976
Si    8.2151796955    2.7215834290   -0.0001477095   -0.0001465160   -0.0000377453    0.0001943900
Si    2.7215837023    8.2151795306   -0.0001476152   -0.0000377453   -0.0001465160    0.0001943900
Si    8.1862591391    8.1862594345    0.0332542525   -0.0000801612   -0.0000801612    0.0000317887
Si    1.3857775043    1.3857769131    1.3345022562   -0.0000148903   -0.0000148903    0.0000043316
Si    6.8497484051    1.3570456618    1.3682601440    0.0000167475    0.0000686756   -0.0001899030
Si    1.3570453533    6.8497483873    1.3682595903    0.0000686756    0.0000167475   -0.0001899030
Si    6.8133894590    6.8133894028    1.4133014250    0.0002046307    0.0002046307   -0.0001988312
Si    4.1022110852    4.1022109863    1.3680387630    0.0001939691    0.0001939691   -0.0001614705
Si    9.5473462182    4.1101687504    1.3914777681    0.0000892821   -0.0001327591   -0.0000892821
Si    4.1101689535    9.5473456426    1.3914782622   -0.0001327591    0.0000892821   -0.0000892821
Si    9.5691692929    9.5691691338    1.3696549999    0.0001349968    0.0001349968   -0.0001349968
Si    2.7215834998    0.0001471241    2.7236446359   -0.0000377453   -0.0001943900    0.0001465160
Si    8.1862591342   -0.0332545039    2.7525651425   -0.0000801612   -0.0000317887    0.0000801612
Si    2.7283706292    5.4704413300    2.7397679493    0.0000090456   -0.0001575049    0.0002140667
Si    8.1050440335    5.4246775901    2.8337805174    0.0000474259    0.0000709118   -0.0000474259
Si    5.4704417918    2.7283718640    2.7397688159   -0.0001575049    0.0000090456    0.0002140667
Si    0.0001474304    2.7215829633    2.7236442412   -0.0001943900   -0.0000377453    0.0001465160
Si    5.4246774596    8.1050432376    2.8337812301    0.0000709118    0.0000474259   -0.0000474259
Si   -0.0332541978    8.1862590948    2.7525650770   -0.0000317887   -0.0000801612    0.0000801612
Si    4.1015510388    1.3726752703    4.0945065981    0.0001249608    0.0001951461    0.0000803764
Si    9.5705640400    1.3570454314    4.0890760409    0.0001899030    0.0000686756   -0.0000167475
Si    4.0878801898    6.6577863151    4.2810378025    0.0001660879    0.0001552011   -0.0001552011
Si    9.5255228788    6.8133894471    4.1254352338    0.0001988312    0.0002046307   -0.0002046307
Si    6.6577865671    4.0878826317    4.2810385602    0.0001552011    0.0001660879   -0.0001552011
Si    1.3726747495    4.1015507907    4.0945065383    0.0001951461    0.0001249608    0.0000803764
Si    6.8133894327    9.5255226149    4.1254355295    0.0002046307    0.0001988312   -0.0002046307
Si    1.3570455119    9.5705639529    4.0890761667    0.0000686756    0.0001899030   -0.0000167475
Si    0.0214816057    0.0214815959    5.4762957348   -0.0000939763   -0.0000939763   -0.0000796149
Si    5.4693495371    0.0010777680    5.4694749421   -0.0002590069   -0.0001639474    0.0002590069
Si    0.0010775822    5.4693495082    5.4694749261   -0.0001639474   -0.0002590069    0.0002590069
Si    2.9084513761    2.9084515563    5.4546008913   -0.0001222511   -0.0001222511    0.0002143092
Si    8.1990559005    2.7283716334    5.4683825830   -0.0002140667    0.0000090456    0.0001575049
Si    2.7283708644    8.1990557695    5.4683831585    0.0000090456   -0.0002140667    0.0001575049
Si    8.1050431678    8.1050428923    5.5141474198    0.0000474259    0.0000474259   -0.0000709118
Si    1.4634438305    1.4634437977    6.7921224897   -0.0000141520   -0.0000141520    0.0000948932
Si    6.8443175648    1.3726757463    6.8372732478   -0.0000803764    0.0001951461   -0.0001249608
Si    1.3726751316    6.8443172523    6.8372737305    0.0001951461   -0.0000803764   -0.0001249608
Si    6.6577842365    6.6577835394    6.8509396372    0.0001552011    0.0001552011   -0.0001660879
Si    4.7988100193    4.7988109032    6.1400130235    0.0007215247    0.0007215247   -0.0007215247
Si    9.5707850314    4.1022111456    6.8366134871    0.0001614705    0.0001939691   -0.0001939691
Si    4.1022111622    9.5707850148    6.8366133774    0.0001939691    0.0001614705   -0.0001939691
Si    9.5473458507    9.5473457688    6.8286556346    0.0000892821    0.0000892821    0.0001327591
Si    2.7578667104    0.0457272549    8.1809577139   -0.0001405941   -0.0002177976    0.0001405941