
     Program PWSCF v.6.4.1 starts on  6Jul2019 at 22:41:17 

     This program is part of the open-source Quantum ESPRESSO suite
     for quantum simulation of materials; please cite
         "P. Giannozzi et al., J. Phys.:Condens. Matter 21 395502 (2009);
         "P. Giannozzi et al., J. Phys.:Condens. Matter 29 465901 (2017);
          URL http://www.quantum-espresso.org", 
     in publications or presentations arising from this work. More details at
     http://www.quantum-espresso.org/quote

     Parallel version (MPI), running on     2 processors

     MPI processes distributed on     1 nodes
     R & G space division:  proc/nbgrp/npool/nimage =       2
     Reading input from si.1_scf.in

     Current dimensions of program PWSCF are:
     Max number of different atomic species (ntypx) = 10
     Max number of k-points (npk) =  40000
     Max angular momentum in pseudopotentials (lmaxx) =  3

     Subspace diagonalization in iterative solution of the eigenvalue problem:
     a serial algorithm will be used

 
     Parallelization info
     --------------------
     sticks:   dense  smooth     PW     G-vecs:    dense   smooth      PW
     Min         372     372    120                 6767     6767    1198
     Max         373     373    121                 6772     6772    1199
     Sum         745     745    241                13539    13539    2397
 


     bravais-lattice index     =            2
     lattice parameter (alat)  =      10.4109  a.u.
     unit-cell volume          =     282.1019 (a.u.)^3
     number of atoms/cell      =            2
     number of atomic types    =            1
     number of electrons       =         8.00
     number of Kohn-Sham states=            4
     kinetic-energy cutoff     =      50.0000  Ry
     charge density cutoff     =     200.0000  Ry
     convergence threshold     =      1.0E-10
     mixing beta               =       0.7000
     number of iterations used =            8  plain     mixing
     Exchange-correlation      = PBE ( 1  4  3  4 0 0)

     celldm(1)=  10.410909  celldm(2)=   0.000000  celldm(3)=   0.000000
     celldm(4)=   0.000000  celldm(5)=   0.000000  celldm(6)=   0.000000

     crystal axes: (cart. coord. in units of alat)
               a(1) = (  -0.500000   0.000000   0.500000 )  
               a(2) = (   0.000000   0.500000   0.500000 )  
               a(3) = (  -0.500000   0.500000   0.000000 )  

     reciprocal axes: (cart. coord. in units 2 pi/alat)
               b(1) = ( -1.000000 -1.000000  1.000000 )  
               b(2) = (  1.000000  1.000000  1.000000 )  
               b(3) = ( -1.000000  1.000000 -1.000000 )  


     PseudoPot. # 1 for Si read from file:
     /home/anonymous/quantumEspresso_2019/SSSP_precision_pseudos/Si.pbe-n-rrkjus_psl.1.0.0.UPF
     MD5 check sum: 0b0bb1205258b0d07b9f9672cf965d36
     Pseudo is Ultrasoft + core correction, Zval =  4.0
     Generated using "atomic" code by A. Dal Corso v.5.1
     Using radial grid of 1141 points,  6 beta functions with: 
                l(1) =   0
                l(2) =   0
                l(3) =   1
                l(4) =   1
                l(5) =   2
                l(6) =   2
     Q(r) pseudized with 0 coefficients 


     atomic species   valence    mass     pseudopotential
        Si             4.00    28.08550     Si( 1.00)

     48 Sym. Ops., with inversion, found (24 have fractional translation)



   Cartesian axes

     site n.     atom                  positions (alat units)
         1           Si  tau(   1) = (   0.0000000   0.0000000   0.0000000  )
         2           Si  tau(   2) = (   0.2500000   0.2500000   0.2500000  )

     number of k points=    28
                       cart. coord. in units 2pi/alat
        k(    1) = (  -0.0833333   0.0833333   0.0833333), wk =   0.0185185
        k(    2) = (  -0.2500000   0.2500000  -0.0833333), wk =   0.0555556
        k(    3) = (  -0.4166667   0.4166667  -0.2500000), wk =   0.0555556
        k(    4) = (   0.4166667  -0.4166667   0.5833333), wk =   0.0555556
        k(    5) = (   0.2500000  -0.2500000   0.4166667), wk =   0.0555556
        k(    6) = (   0.0833333  -0.0833333   0.2500000), wk =   0.0555556
        k(    7) = (  -0.0833333   0.4166667   0.0833333), wk =   0.0555556
        k(    8) = (  -0.2500000   0.5833333  -0.0833333), wk =   0.1111111
        k(    9) = (   0.5833333  -0.2500000   0.7500000), wk =   0.1111111
        k(   10) = (   0.4166667  -0.0833333   0.5833333), wk =   0.1111111
        k(   11) = (   0.2500000   0.0833333   0.4166667), wk =   0.1111111
        k(   12) = (  -0.0833333   0.7500000   0.0833333), wk =   0.0555556
        k(   13) = (   0.7500000  -0.0833333   0.9166667), wk =   0.1111111
        k(   14) = (   0.5833333   0.0833333   0.7500000), wk =   0.1111111
        k(   15) = (   0.4166667   0.2500000   0.5833333), wk =   0.1111111
        k(   16) = (  -0.0833333  -0.9166667   0.0833333), wk =   0.0555556
        k(   17) = (  -0.2500000  -0.7500000  -0.0833333), wk =   0.1111111
        k(   18) = (  -0.0833333  -0.5833333   0.0833333), wk =   0.0555556
        k(   19) = (  -0.2500000   0.2500000   0.2500000), wk =   0.0185185
        k(   20) = (  -0.4166667   0.4166667   0.0833333), wk =   0.0555556
        k(   21) = (   0.4166667  -0.4166667   0.9166667), wk =   0.0555556
        k(   22) = (   0.2500000  -0.2500000   0.7500000), wk =   0.0555556
        k(   23) = (  -0.2500000   0.5833333   0.2500000), wk =   0.0555556
        k(   24) = (   0.5833333  -0.2500000   1.0833333), wk =   0.1111111
        k(   25) = (   0.4166667  -0.0833333   0.9166667), wk =   0.1111111
        k(   26) = (  -0.2500000  -1.0833333   0.2500000), wk =   0.0555556
        k(   27) = (  -0.4166667   0.4166667   0.4166667), wk =   0.0185185
        k(   28) = (   0.4166667  -0.4166667   1.2500000), wk =   0.0555556

     Dense  grid:    13539 G-vectors     FFT dimensions: (  36,  36,  36)

     Estimated max dynamical RAM per process >      27.68 MB

     Estimated total dynamical RAM >      55.35 MB

     Check: negative core charge=   -0.000001

     Initial potential from superposition of free atoms

     starting charge    7.99888, renormalised to    8.00000
     Starting wfcs are    8 randomized atomic wfcs

     total cpu time spent up to now is        1.3 secs

     Self-consistent Calculation

     iteration #  1     ecut=    50.00 Ry     beta= 0.70
     Davidson diagonalization with overlap
     ethr =  1.00E-02,  avg # of iterations =  2.0

     Threshold (ethr) on eigenvalues was too large:
     Diagonalizing with lowered threshold

     Davidson diagonalization with overlap
     ethr =  6.46E-04,  avg # of iterations =  1.3

     total cpu time spent up to now is        2.4 secs

     total energy              =     -22.83748221 Ry
     Harris-Foulkes estimate   =     -22.84908006 Ry
     estimated scf accuracy    <       0.05118550 Ry

     iteration #  2     ecut=    50.00 Ry     beta= 0.70
     Davidson diagonalization with overlap
     ethr =  6.40E-04,  avg # of iterations =  1.0

     total cpu time spent up to now is        2.9 secs

     total energy              =     -22.83919459 Ry
     Harris-Foulkes estimate   =     -22.83942523 Ry
     estimated scf accuracy    <       0.00262122 Ry

     iteration #  3     ecut=    50.00 Ry     beta= 0.70
     Davidson diagonalization with overlap
     ethr =  3.28E-05,  avg # of iterations =  2.8

     total cpu time spent up to now is        3.5 secs

     total energy              =     -22.83978179 Ry
     Harris-Foulkes estimate   =     -22.83983773 Ry
     estimated scf accuracy    <       0.00012254 Ry

     iteration #  4     ecut=    50.00 Ry     beta= 0.70
     Davidson diagonalization with overlap
     ethr =  1.53E-06,  avg # of iterations =  2.1

     total cpu time spent up to now is        4.2 secs

     total energy              =     -22.83980280 Ry
     Harris-Foulkes estimate   =     -22.83983109 Ry
     estimated scf accuracy    <       0.00005988 Ry

     iteration #  5     ecut=    50.00 Ry     beta= 0.70
     Davidson diagonalization with overlap
     ethr =  7.49E-07,  avg # of iterations =  2.0

     total cpu time spent up to now is        4.8 secs

     total energy              =     -22.83980954 Ry
     Harris-Foulkes estimate   =     -22.83980952 Ry
     estimated scf accuracy    <       0.00000003 Ry

     iteration #  6     ecut=    50.00 Ry     beta= 0.70
     Davidson diagonalization with overlap
     ethr =  4.35E-10,  avg # of iterations =  4.5

     total cpu time spent up to now is        5.8 secs

     total energy              =     -22.83980987 Ry
     Harris-Foulkes estimate   =     -22.83980989 Ry
     estimated scf accuracy    <       0.00000006 Ry

     iteration #  7     ecut=    50.00 Ry     beta= 0.70
     Davidson diagonalization with overlap
     ethr =  4.35E-10,  avg # of iterations =  1.0

     total cpu time spent up to now is        6.3 secs

     total energy              =     -22.83980987 Ry
     Harris-Foulkes estimate   =     -22.83980987 Ry
     estimated scf accuracy    <          7.3E-09 Ry

     iteration #  8     ecut=    50.00 Ry     beta= 0.70
     Davidson diagonalization with overlap
     ethr =  9.09E-11,  avg # of iterations =  2.0

     total cpu time spent up to now is        6.9 secs

     total energy              =     -22.83980987 Ry
     Harris-Foulkes estimate   =     -22.83980987 Ry
     estimated scf accuracy    <          1.0E-10 Ry

     iteration #  9     ecut=    50.00 Ry     beta= 0.70
     Davidson diagonalization with overlap
     ethr =  1.26E-12,  avg # of iterations =  3.4

     total cpu time spent up to now is        7.7 secs

     End of self-consistent calculation

          k =-0.0833 0.0833 0.0833 (  1699 PWs)   bands (ev):

    -5.8225   4.8989   5.6230   5.6230

          k =-0.2500 0.2500-0.0833 (  1684 PWs)   bands (ev):

    -5.3622   2.8500   4.4308   5.4147

          k =-0.4167 0.4167-0.2500 (  1679 PWs)   bands (ev):

    -4.3117   0.1763   3.9693   4.7977

          k = 0.4167-0.4167 0.5833 (  1690 PWs)   bands (ev):

    -3.6486  -0.9199   4.0268   4.4318

          k = 0.2500-0.2500 0.4167 (  1677 PWs)   bands (ev):

    -4.7067   0.9939   4.4947   4.5099

          k = 0.0833-0.0833 0.2500 (  1704 PWs)   bands (ev):

    -5.5900   3.8346   5.0031   5.1688

          k =-0.0833 0.4167 0.0833 (  1683 PWs)   bands (ev):

    -5.1291   2.6388   4.2732   4.2983

          k =-0.2500 0.5833-0.0833 (  1683 PWs)   bands (ev):

    -4.2514   0.8468   3.0083   3.9218

          k = 0.5833-0.2500 0.7500 (  1686 PWs)   bands (ev):

    -3.1861  -0.8261   2.4155   3.7061

          k = 0.4167-0.0833 0.5833 (  1688 PWs)   bands (ev):

    -3.8736   0.1825   2.3888   4.1710

          k = 0.2500 0.0833 0.4167 (  1687 PWs)   bands (ev):

    -4.9120   1.8403   3.6797   4.8088

          k =-0.0833 0.7500 0.0833 (  1685 PWs)   bands (ev):

    -3.5630   0.0239   2.9794   3.3016

          k = 0.7500-0.0833 0.9167 (  1680 PWs)   bands (ev):

    -2.4132  -1.2753   2.1774   2.9159

          k = 0.5833 0.0833 0.7500 (  1683 PWs)   bands (ev):

    -2.7800  -0.9336   1.7090   3.4405

          k = 0.4167 0.2500 0.5833 (  1684 PWs)   bands (ev):

    -3.7699  -0.4504   3.2768   4.2632

          k =-0.0833-0.9167 0.0833 (  1689 PWs)   bands (ev):

    -2.4973  -1.2811   2.7200   3.0927

          k =-0.2500-0.7500-0.0833 (  1678 PWs)   bands (ev):

    -3.4030  -0.1889   2.4799   3.2447

          k =-0.0833-0.5833 0.0833 (  1687 PWs)   bands (ev):

    -4.4484   1.3548   3.5014   3.7110

          k =-0.2500 0.2500 0.2500 (  1679 PWs)   bands (ev):

    -5.1410   1.9079   5.0277   5.0277

          k =-0.4167 0.4167 0.0833 (  1680 PWs)   bands (ev):

    -4.4866   0.9767   2.9725   4.8609

          k = 0.4167-0.4167 0.9167 (  1686 PWs)   bands (ev):

    -3.3553  -0.4336   1.9114   4.1051

          k = 0.2500-0.2500 0.7500 (  1689 PWs)   bands (ev):

    -3.3030  -0.5113   2.3661   3.6418

          k =-0.2500 0.5833 0.2500 (  1681 PWs)   bands (ev):

    -4.0790   0.2003   3.4024   4.0023

          k = 0.5833-0.2500 1.0833 (  1684 PWs)   bands (ev):

    -3.1156  -0.5578   2.0103   3.2464

          k = 0.4167-0.0833 0.9167 (  1682 PWs)   bands (ev):

    -2.3165  -1.2829   1.8629   2.6078

          k =-0.2500-1.0833 0.2500 (  1681 PWs)   bands (ev):

    -2.5208  -1.1817   1.7410   3.4536

          k =-0.4167 0.4167 0.4167 (  1679 PWs)   bands (ev):

    -3.9990  -0.5345   4.6478   4.6478

          k = 0.4167-0.4167 1.2500 (  1694 PWs)   bands (ev):

    -3.4203  -0.8387   2.8681   4.2265

     highest occupied level (ev):     5.6230

!    total energy              =     -22.83980987 Ry
     Harris-Foulkes estimate   =     -22.83980987 Ry
     estimated scf accuracy    <          3.4E-11 Ry

     The total energy is the sum of the following terms:

     one-electron contribution =       4.83588389 Ry
     hartree contribution      =       1.13870887 Ry
     xc contribution           =     -12.25700751 Ry
     ewald contribution        =     -16.55739512 Ry

     convergence has been achieved in   9 iterations

     Writing output data file si.save/
 
     init_run     :      0.58s CPU      0.61s WALL (       1 calls)
     electrons    :      6.31s CPU      6.41s WALL (       1 calls)

     Called by init_run:
     wfcinit      :      0.25s CPU      0.25s WALL (       1 calls)
     potinit      :      0.02s CPU      0.02s WALL (       1 calls)
     hinit0       :      0.27s CPU      0.28s WALL (       1 calls)

     Called by electrons:
     c_bands      :      4.93s CPU      5.00s WALL (      10 calls)
     sum_band     :      1.03s CPU      1.05s WALL (      10 calls)
     v_of_rho     :      0.19s CPU      0.19s WALL (      10 calls)
     newd         :      0.16s CPU      0.18s WALL (      10 calls)
     mix_rho      :      0.02s CPU      0.02s WALL (      10 calls)

     Called by c_bands:
     init_us_2    :      0.25s CPU      0.25s WALL (     588 calls)
     cegterg      :      3.85s CPU      3.91s WALL (     280 calls)

     Called by sum_band:
     sum_band:bec :      0.01s CPU      0.01s WALL (     280 calls)
     addusdens    :      0.19s CPU      0.21s WALL (      10 calls)

     Called by *egterg:
     h_psi        :      3.57s CPU      3.62s WALL (     926 calls)
     s_psi        :      0.12s CPU      0.12s WALL (     926 calls)
     g_psi        :      0.02s CPU      0.02s WALL (     618 calls)
     cdiaghg      :      0.10s CPU      0.10s WALL (     870 calls)

     Called by h_psi:
     h_psi:pot    :      3.55s CPU      3.61s WALL (     926 calls)
     h_psi:calbec :      0.24s CPU      0.24s WALL (     926 calls)
     vloc_psi     :      3.18s CPU      3.23s WALL (     926 calls)
     add_vuspsi   :      0.13s CPU      0.13s WALL (     926 calls)

     General routines
     calbec       :      0.32s CPU      0.32s WALL (    1206 calls)
     fft          :      0.10s CPU      0.10s WALL (     111 calls)
     ffts         :      0.01s CPU      0.01s WALL (      10 calls)
     fftw         :      3.37s CPU      3.42s WALL (    8018 calls)
 
     Parallel routines
     fft_scatt_xy :      0.32s CPU      0.33s WALL (    8139 calls)
     fft_scatt_yz :      1.33s CPU      1.35s WALL (    8139 calls)
 
     PWSCF        :      7.55s CPU      7.69s WALL

 
   This run was terminated on:  22:41:25   6Jul2019            

=------------------------------------------------------------------------------=
   JOB DONE.
=------------------------------------------------------------------------------=
