
     Program PHONON v.6.4.1 starts on  6Jul2019 at 22:43:52 

     This program is part of the open-source Quantum ESPRESSO suite
     for quantum simulation of materials; please cite
         "P. Giannozzi et al., J. Phys.:Condens. Matter 21 395502 (2009);
         "P. Giannozzi et al., J. Phys.:Condens. Matter 29 465901 (2017);
          URL http://www.quantum-espresso.org", 
     in publications or presentations arising from this work. More details at
     http://www.quantum-espresso.org/quote

     Parallel version (MPI), running on     2 processors

     MPI processes distributed on     1 nodes
     R & G space division:  proc/nbgrp/npool/nimage =       2

     Reading data from directory:
     ./outdir/si.save/

     IMPORTANT: XC functional enforced from input :
     Exchange-correlation      = PBE ( 1  4  3  4 0 0)
     Any further DFT definition will be discarded
     Please, verify this is what you really want

 
     Parallelization info
     --------------------
     sticks:   dense  smooth     PW     G-vecs:    dense   smooth      PW
     Min         372     372    120                 6767     6767    1198
     Max         373     373    121                 6772     6772    1199
     Sum         745     745    241                13539    13539    2397
 

     Check: negative core charge=   -0.000001

     Calculation of q =    0.0000000   0.0000000   0.0000000

     phonon calculation at Gamma point.                                         

     bravais-lattice index     =            2
     lattice parameter (alat)  =      10.4109  a.u.
     unit-cell volume          =     282.1019 (a.u.)^3
     number of atoms/cell      =            2
     number of atomic types    =            1
     kinetic-energy cut-off    =      50.0000  Ry
     charge density cut-off    =     200.0000  Ry
     convergence threshold     =      1.0E-14
     beta                      =       0.7000
     number of iterations used =            4
     Exchange-correlation      = PBE ( 1  4  3  4 0 0)


     celldm(1)=   10.41091  celldm(2)=    0.00000  celldm(3)=    0.00000
     celldm(4)=    0.00000  celldm(5)=    0.00000  celldm(6)=    0.00000

     crystal axes: (cart. coord. in units of alat)
               a(1) = ( -0.5000  0.0000  0.5000 )  
               a(2) = (  0.0000  0.5000  0.5000 )  
               a(3) = ( -0.5000  0.5000  0.0000 )  

     reciprocal axes: (cart. coord. in units 2 pi/alat)
               b(1) = ( -1.0000 -1.0000  1.0000 )  
               b(2) = (  1.0000  1.0000  1.0000 )  
               b(3) = ( -1.0000  1.0000 -1.0000 )  


     Atoms inside the unit cell: 

     Cartesian axes

     site n.  atom      mass           positions (alat units)
        1     Si  28.0855   tau(    1) = (    0.00000    0.00000    0.00000  )
        2     Si  28.0855   tau(    2) = (    0.25000    0.25000    0.25000  )

     Computing dynamical matrix for 
                    q = (   0.0000000   0.0000000   0.0000000 )
 
     49 Sym.Ops. (with q -> -q+G )


     G cutoff =  549.0951  (   6772 G-vectors)     FFT grid: ( 36, 36, 36)
     number of k points=    28
                       cart. coord. in units 2pi/alat
        k(    1) = (  -0.0833333   0.0833333   0.0833333), wk =   0.0185185
        k(    2) = (  -0.2500000   0.2500000  -0.0833333), wk =   0.0555556
        k(    3) = (  -0.4166667   0.4166667  -0.2500000), wk =   0.0555556
        k(    4) = (   0.4166667  -0.4166667   0.5833333), wk =   0.0555556
        k(    5) = (   0.2500000  -0.2500000   0.4166667), wk =   0.0555556
        k(    6) = (   0.0833333  -0.0833333   0.2500000), wk =   0.0555556
        k(    7) = (  -0.0833333   0.4166667   0.0833333), wk =   0.0555556
        k(    8) = (  -0.2500000   0.5833333  -0.0833333), wk =   0.1111111
        k(    9) = (   0.5833333  -0.2500000   0.7500000), wk =   0.1111111
        k(   10) = (   0.4166667  -0.0833333   0.5833333), wk =   0.1111111
        k(   11) = (   0.2500000   0.0833333   0.4166667), wk =   0.1111111
        k(   12) = (  -0.0833333   0.7500000   0.0833333), wk =   0.0555556
        k(   13) = (   0.7500000  -0.0833333   0.9166667), wk =   0.1111111
        k(   14) = (   0.5833333   0.0833333   0.7500000), wk =   0.1111111
        k(   15) = (   0.4166667   0.2500000   0.5833333), wk =   0.1111111
        k(   16) = (  -0.0833333  -0.9166667   0.0833333), wk =   0.0555556
        k(   17) = (  -0.2500000  -0.7500000  -0.0833333), wk =   0.1111111
        k(   18) = (  -0.0833333  -0.5833333   0.0833333), wk =   0.0555556
        k(   19) = (  -0.2500000   0.2500000   0.2500000), wk =   0.0185185
        k(   20) = (  -0.4166667   0.4166667   0.0833333), wk =   0.0555556
        k(   21) = (   0.4166667  -0.4166667   0.9166667), wk =   0.0555556
        k(   22) = (   0.2500000  -0.2500000   0.7500000), wk =   0.0555556
        k(   23) = (  -0.2500000   0.5833333   0.2500000), wk =   0.0555556
        k(   24) = (   0.5833333  -0.2500000   1.0833333), wk =   0.1111111
        k(   25) = (   0.4166667  -0.0833333   0.9166667), wk =   0.1111111
        k(   26) = (  -0.2500000  -1.0833333   0.2500000), wk =   0.0555556
        k(   27) = (  -0.4166667   0.4166667   0.4166667), wk =   0.0185185
        k(   28) = (   0.4166667  -0.4166667   1.2500000), wk =   0.0555556

     PseudoPot. # 1 for Si read from file:
     /home/anonymous/quantumEspresso_2019/SSSP_precision_pseudos/Si.pbe-n-rrkjus_psl.1.0.0.UPF
     MD5 check sum: 0b0bb1205258b0d07b9f9672cf965d36
     Pseudo is Ultrasoft + core correction, Zval =  4.0
     Generated using "atomic" code by A. Dal Corso v.5.1
     Using radial grid of 1141 points,  6 beta functions with: 
                l(1) =   0
                l(2) =   0
                l(3) =   1
                l(4) =   1
                l(5) =   2
                l(6) =   2
     Q(r) pseudized with 0 coefficients 


     Mode symmetry, O_h (m-3m)  point group:


     Electric field:
     Dielectric constant
     Born effective charges as d Force / d E


     Atomic displacements:
     There are   2 irreducible representations

     Representation     1      3 modes -T_2g G_25' G_5+  To be done

     Representation     2      3 modes -T_1u G_15  G_4-  To be done



     Alpha used in Ewald sum =   2.1000
     PHONON       :      2.67s CPU      2.73s WALL


     Electric Fields Calculation

      iter #   1 total cpu time :    15.5 secs   av.it.:   6.3
      thresh= 1.000E-02 alpha_mix =  0.700 |ddv_scf|^2 =  1.338E-07

      iter #   2 total cpu time :    21.8 secs   av.it.:  11.2
      thresh= 3.658E-05 alpha_mix =  0.700 |ddv_scf|^2 =  7.986E-09

      iter #   3 total cpu time :    28.1 secs   av.it.:  10.8
      thresh= 8.936E-06 alpha_mix =  0.700 |ddv_scf|^2 =  5.214E-10

      iter #   4 total cpu time :    34.6 secs   av.it.:  10.5
      thresh= 2.283E-06 alpha_mix =  0.700 |ddv_scf|^2 =  3.778E-12

      iter #   5 total cpu time :    41.9 secs   av.it.:  10.8
      thresh= 1.944E-07 alpha_mix =  0.700 |ddv_scf|^2 =  3.708E-15

     End of electric fields calculation

          Dielectric constant in cartesian axis 

          (      13.220354477      -0.000000000      -0.000000000 )
          (      -0.000000000      13.220354477      -0.000000000 )
          (      -0.000000000       0.000000000      13.220354477 )

          Effective charges (d Force / dE) in cartesian axis

           atom      1   Si 
      Ex  (       -0.00764       -0.00000        0.00000 )
      Ey  (       -0.00000       -0.00764        0.00000 )
      Ez  (       -0.00000        0.00000       -0.00764 )
           atom      2   Si 
      Ex  (       -0.00764        0.00000       -0.00000 )
      Ey  (        0.00000       -0.00764        0.00000 )
      Ez  (       -0.00000       -0.00000       -0.00764 )


     Representation #  1 modes #   1  2  3

     Self-consistent Calculation

      iter #   1 total cpu time :    52.7 secs   av.it.:   5.4
      thresh= 1.000E-02 alpha_mix =  0.700 |ddv_scf|^2 =  3.362E-08

      iter #   2 total cpu time :    59.4 secs   av.it.:  10.9
      thresh= 1.834E-05 alpha_mix =  0.700 |ddv_scf|^2 =  2.205E-09

      iter #   3 total cpu time :    66.6 secs   av.it.:  10.6
      thresh= 4.696E-06 alpha_mix =  0.700 |ddv_scf|^2 =  1.026E-10

      iter #   4 total cpu time :    73.2 secs   av.it.:  10.4
      thresh= 1.013E-06 alpha_mix =  0.700 |ddv_scf|^2 =  1.874E-13

      iter #   5 total cpu time :    80.5 secs   av.it.:  11.2
      thresh= 4.329E-08 alpha_mix =  0.700 |ddv_scf|^2 =  2.567E-15

     End of self-consistent calculation

     Convergence has been achieved 


     Representation #  2 modes #   4  5  6

     Self-consistent Calculation

      iter #   1 total cpu time :    85.6 secs   av.it.:   5.6
      thresh= 1.000E-02 alpha_mix =  0.700 |ddv_scf|^2 =  3.082E-08

      iter #   2 total cpu time :    92.6 secs   av.it.:  10.9
      thresh= 1.756E-05 alpha_mix =  0.700 |ddv_scf|^2 =  2.333E-09

      iter #   3 total cpu time :    99.9 secs   av.it.:  10.8
      thresh= 4.830E-06 alpha_mix =  0.700 |ddv_scf|^2 =  8.890E-11

      iter #   4 total cpu time :   107.4 secs   av.it.:  10.9
      thresh= 9.429E-07 alpha_mix =  0.700 |ddv_scf|^2 =  2.464E-13

      iter #   5 total cpu time :   114.8 secs   av.it.:  11.0
      thresh= 4.964E-08 alpha_mix =  0.700 |ddv_scf|^2 =  1.088E-15

     End of self-consistent calculation

     Convergence has been achieved 
 
     Number of q in the star =    1
     List of q in the star:
          1   0.000000000   0.000000000   0.000000000

          Dielectric constant in cartesian axis 

          (      13.220354477      -0.000000000      -0.000000000 )
          (      -0.000000000      13.220354477      -0.000000000 )
          (      -0.000000000       0.000000000      13.220354477 )

          Effective charges (d Force / dE) in cartesian axis

           atom      1   Si 
      Ex  (       -0.00764       -0.00000        0.00000 )
      Ey  (       -0.00000       -0.00764        0.00000 )
      Ez  (       -0.00000        0.00000       -0.00764 )
           atom      2   Si 
      Ex  (       -0.00764        0.00000       -0.00000 )
      Ey  (        0.00000       -0.00764        0.00000 )
      Ez  (       -0.00000       -0.00000       -0.00764 )

     Diagonalizing the dynamical matrix

     q = (    0.000000000   0.000000000   0.000000000 ) 

 **************************************************************************
     freq (    1) =      -0.573471 [THz] =     -19.128945 [cm-1]
     freq (    2) =      -0.573471 [THz] =     -19.128945 [cm-1]
     freq (    3) =      -0.573471 [THz] =     -19.128945 [cm-1]
     freq (    4) =      14.762436 [THz] =     492.421852 [cm-1]
     freq (    5) =      14.762436 [THz] =     492.421852 [cm-1]
     freq (    6) =      14.762436 [THz] =     492.421852 [cm-1]
 **************************************************************************

     Mode symmetry, O_h (m-3m)  point group:

     freq (  1 -  3) =        -19.1  [cm-1]   --> T_1u G_15  G_4- I  
     freq (  4 -  6) =        492.4  [cm-1]   --> T_2g G_25' G_5+ R  
 
     PHONON       :   1m51.28s CPU   1m55.06s WALL

     INITIALIZATION: 
     phq_setup    :      0.05s CPU      0.05s WALL (       1 calls)
     phq_init     :      1.64s CPU      1.68s WALL (       1 calls)
 
     phq_init     :      1.64s CPU      1.68s WALL (       1 calls)
     set_drhoc    :      0.34s CPU      0.34s WALL (       3 calls)
     init_vloc    :      0.00s CPU      0.00s WALL (       1 calls)
     init_us_1    :      0.21s CPU      0.22s WALL (       1 calls)
     newd         :      0.02s CPU      0.02s WALL (       1 calls)
     dvanqq       :      0.31s CPU      0.32s WALL (       1 calls)
     drho         :      0.75s CPU      0.77s WALL (       1 calls)
     cmpt_qdipol  :      0.00s CPU      0.00s WALL (       1 calls)
 
     DIELECTRIC CONSTANT AND EFFECTIVE CHARGES:
     solve_e      :     37.87s CPU     39.13s WALL (       1 calls)
     dielec       :      0.00s CPU      0.01s WALL (       1 calls)
     zstar_eu     :      5.90s CPU      6.12s WALL (       1 calls)
 
     DYNAMICAL MATRIX:
     dynmat0      :      0.31s CPU      0.31s WALL (       1 calls)
     phqscf       :     64.83s CPU     67.04s WALL (       1 calls)
     dynmatrix    :      0.00s CPU      0.00s WALL (       1 calls)
 
     phqscf       :     64.83s CPU     67.04s WALL (       1 calls)
     solve_linter :     64.59s CPU     66.79s WALL (       2 calls)
     drhodv       :      0.23s CPU      0.24s WALL (       2 calls)
 
     dynmat0      :      0.31s CPU      0.31s WALL (       1 calls)
     dynmat_us    :      0.06s CPU      0.06s WALL (       1 calls)
     d2ionq       :      0.00s CPU      0.00s WALL (       1 calls)
     dynmatcc     :      0.24s CPU      0.24s WALL (       1 calls)
 
     dynmat_us    :      0.06s CPU      0.06s WALL (       1 calls)
     addusdynmat  :      0.00s CPU      0.00s WALL (       1 calls)
 
     phqscf       :     64.83s CPU     67.04s WALL (       1 calls)
     solve_linter :     64.59s CPU     66.79s WALL (       2 calls)
 
     solve_linter :     64.59s CPU     66.79s WALL (       2 calls)
     dvqpsi_us    :      2.48s CPU      2.54s WALL (     336 calls)
     ortho        :      0.78s CPU      0.80s WALL (    1344 calls)
     cgsolve      :     80.55s CPU     83.11s WALL (    1344 calls)
     incdrhoscf   :      7.09s CPU      7.40s WALL (    1344 calls)
     addusddens   :      0.68s CPU      0.69s WALL (      12 calls)
     vpsifft      :      3.09s CPU      3.24s WALL (     672 calls)
     dv_of_drho   :      0.72s CPU      0.75s WALL (      48 calls)
     mix_pot      :      0.06s CPU      0.12s WALL (      15 calls)
     psymdvscf    :      3.15s CPU      3.19s WALL (      10 calls)
     newdq        :      1.71s CPU      1.80s WALL (      15 calls)
     adddvscf     :      0.21s CPU      0.22s WALL (    1008 calls)
     drhodvus     :      0.00s CPU      0.00s WALL (       2 calls)
 
     dvqpsi_us    :      2.48s CPU      2.54s WALL (     336 calls)
     dvqpsi_us_on :      0.48s CPU      0.49s WALL (     336 calls)
 
     cgsolve      :     80.55s CPU     83.11s WALL (    1344 calls)
     ch_psi       :     78.84s CPU     81.33s WALL (   16511 calls)
 
     ch_psi       :     78.84s CPU     81.33s WALL (   16511 calls)
     h_psi        :     68.22s CPU     70.39s WALL (   16511 calls)
     last         :      7.67s CPU      7.91s WALL (   16511 calls)
 
     h_psi        :     68.22s CPU     70.39s WALL (   16511 calls)
     add_vuspsi   :      2.55s CPU      2.64s WALL (   16511 calls)
 
     incdrhoscf   :      7.09s CPU      7.40s WALL (    1344 calls)
     addusdbec    :      0.53s CPU      0.55s WALL (    1512 calls)
 
     drhodvus     :      0.00s CPU      0.00s WALL (       2 calls)
 
      General routines
     calbec       :      9.17s CPU      9.48s WALL (   41030 calls)
     fft          :      1.06s CPU      1.10s WALL (     935 calls)
     ffts         :      0.37s CPU      0.38s WALL (     354 calls)
     fftw         :     66.41s CPU     68.67s WALL (  138508 calls)
     davcio       :      0.32s CPU      0.40s WALL (    6488 calls)
     write_rec    :      0.03s CPU      0.07s WALL (      17 calls)
 
 
     PHONON       :   1m51.28s CPU   1m55.06s WALL

 
   This run was terminated on:  22:45:47   6Jul2019            

=------------------------------------------------------------------------------=
   JOB DONE.
=------------------------------------------------------------------------------=
