
     Program PWSCF v.6.4.1 starts on 30Jul2019 at 22: 4:43 

     This program is part of the open-source Quantum ESPRESSO suite
     for quantum simulation of materials; please cite
         "P. Giannozzi et al., J. Phys.:Condens. Matter 21 395502 (2009);
         "P. Giannozzi et al., J. Phys.:Condens. Matter 29 465901 (2017);
          URL http://www.quantum-espresso.org", 
     in publications or presentations arising from this work. More details at
     http://www.quantum-espresso.org/quote

     Parallel version (MPI), running on     2 processors

     MPI processes distributed on     1 nodes
     R & G space division:  proc/nbgrp/npool/nimage =       2
     Reading input from si.1_scf_equilibrium.in

     Current dimensions of program PWSCF are:
     Max number of different atomic species (ntypx) = 10
     Max number of k-points (npk) =  40000
     Max angular momentum in pseudopotentials (lmaxx) =  3

     Subspace diagonalization in iterative solution of the eigenvalue problem:
     a serial algorithm will be used

 
     Parallelization info
     --------------------
     sticks:   dense  smooth     PW     G-vecs:    dense   smooth      PW
     Min         581     291     99                13282     4703     903
     Max         584     292    100                13283     4706     904
     Sum        1165     583    199                26565     9409    1807
 


     bravais-lattice index     =            2
     lattice parameter (alat)  =      10.3357  a.u.
     unit-cell volume          =     276.0314 (a.u.)^3
     number of atoms/cell      =            2
     number of atomic types    =            1
     number of electrons       =         8.00
     number of Kohn-Sham states=            4
     kinetic-energy cutoff     =      40.0000  Ry
     charge density cutoff     =     320.0000  Ry
     convergence threshold     =      1.0E-10
     mixing beta               =       0.7000
     number of iterations used =            8  plain     mixing
     Exchange-correlation      = PBE ( 1  4  3  4 0 0)

     celldm(1)=  10.335691  celldm(2)=   0.000000  celldm(3)=   0.000000
     celldm(4)=   0.000000  celldm(5)=   0.000000  celldm(6)=   0.000000

     crystal axes: (cart. coord. in units of alat)
               a(1) = (  -0.500000   0.000000   0.500000 )  
               a(2) = (   0.000000   0.500000   0.500000 )  
               a(3) = (  -0.500000   0.500000   0.000000 )  

     reciprocal axes: (cart. coord. in units 2 pi/alat)
               b(1) = ( -1.000000 -1.000000  1.000000 )  
               b(2) = (  1.000000  1.000000  1.000000 )  
               b(3) = ( -1.000000  1.000000 -1.000000 )  


     PseudoPot. # 1 for Si read from file:
     /home/anonymous/quantumEspresso_2019/SSSP_precision_pseudos/Si.pbe-n-rrkjus_psl.1.0.0.UPF
     MD5 check sum: 0b0bb1205258b0d07b9f9672cf965d36
     Pseudo is Ultrasoft + core correction, Zval =  4.0
     Generated using "atomic" code by A. Dal Corso v.5.1
     Using radial grid of 1141 points,  6 beta functions with: 
                l(1) =   0
                l(2) =   0
                l(3) =   1
                l(4) =   1
                l(5) =   2
                l(6) =   2
     Q(r) pseudized with 0 coefficients 


     atomic species   valence    mass     pseudopotential
        Si             4.00    28.08550     Si( 1.00)

     48 Sym. Ops., with inversion, found (24 have fractional translation)



   Cartesian axes

     site n.     atom                  positions (alat units)
         1           Si  tau(   1) = (   0.0000000   0.0000000   0.0000000  )
         2           Si  tau(   2) = (   0.2500000   0.2500000   0.2500000  )

     number of k points=   110

     Number of k-points >= 100: set verbosity='high' to print them.

     Dense  grid:    26565 G-vectors     FFT dimensions: (  48,  48,  48)

     Smooth grid:     9409 G-vectors     FFT dimensions: (  32,  32,  32)

     Estimated max dynamical RAM per process >      56.66 MB

     Estimated total dynamical RAM >     113.33 MB

     Initial potential from superposition of free atoms

     starting charge    7.99888, renormalised to    8.00000
     Starting wfcs are    8 randomized atomic wfcs

     total cpu time spent up to now is        1.9 secs

     Self-consistent Calculation

     iteration #  1     ecut=    40.00 Ry     beta= 0.70
     Davidson diagonalization with overlap
     ethr =  1.00E-02,  avg # of iterations =  2.0

     Threshold (ethr) on eigenvalues was too large:
     Diagonalizing with lowered threshold

     Davidson diagonalization with overlap
     ethr =  6.69E-04,  avg # of iterations =  1.3

     total cpu time spent up to now is        4.8 secs

     total energy              =     -22.83766121 Ry
     Harris-Foulkes estimate   =     -22.85014666 Ry
     estimated scf accuracy    <       0.05313243 Ry

     iteration #  2     ecut=    40.00 Ry     beta= 0.70
     Davidson diagonalization with overlap
     ethr =  6.64E-04,  avg # of iterations =  1.0

     total cpu time spent up to now is        6.2 secs

     total energy              =     -22.83946507 Ry
     Harris-Foulkes estimate   =     -22.83970146 Ry
     estimated scf accuracy    <       0.00264275 Ry

     iteration #  3     ecut=    40.00 Ry     beta= 0.70
     Davidson diagonalization with overlap
     ethr =  3.30E-05,  avg # of iterations =  2.8

     total cpu time spent up to now is        8.0 secs

     total energy              =     -22.84009277 Ry
     Harris-Foulkes estimate   =     -22.84015512 Ry
     estimated scf accuracy    <       0.00013516 Ry

     iteration #  4     ecut=    40.00 Ry     beta= 0.70
     Davidson diagonalization with overlap
     ethr =  1.69E-06,  avg # of iterations =  2.1

     total cpu time spent up to now is        9.8 secs

     total energy              =     -22.84011157 Ry
     Harris-Foulkes estimate   =     -22.84014483 Ry
     estimated scf accuracy    <       0.00007056 Ry

     iteration #  5     ecut=    40.00 Ry     beta= 0.70
     Davidson diagonalization with overlap
     ethr =  8.82E-07,  avg # of iterations =  2.0

     total cpu time spent up to now is       11.3 secs

     total energy              =     -22.84011918 Ry
     Harris-Foulkes estimate   =     -22.84011914 Ry
     estimated scf accuracy    <       0.00000004 Ry

     iteration #  6     ecut=    40.00 Ry     beta= 0.70
     Davidson diagonalization with overlap
     ethr =  4.41E-10,  avg # of iterations =  4.4

     total cpu time spent up to now is       13.7 secs

     total energy              =     -22.84011954 Ry
     Harris-Foulkes estimate   =     -22.84011956 Ry
     estimated scf accuracy    <       0.00000007 Ry

     iteration #  7     ecut=    40.00 Ry     beta= 0.70
     Davidson diagonalization with overlap
     ethr =  4.41E-10,  avg # of iterations =  1.0

     total cpu time spent up to now is       15.1 secs

     total energy              =     -22.84011954 Ry
     Harris-Foulkes estimate   =     -22.84011954 Ry
     estimated scf accuracy    <       0.00000001 Ry

     iteration #  8     ecut=    40.00 Ry     beta= 0.70
     Davidson diagonalization with overlap
     ethr =  1.50E-10,  avg # of iterations =  2.0

     total cpu time spent up to now is       16.8 secs

     total energy              =     -22.84011954 Ry
     Harris-Foulkes estimate   =     -22.84011954 Ry
     estimated scf accuracy    <          2.2E-10 Ry

     iteration #  9     ecut=    40.00 Ry     beta= 0.70
     Davidson diagonalization with overlap
     ethr =  2.71E-12,  avg # of iterations =  3.2

     total cpu time spent up to now is       18.7 secs

     End of self-consistent calculation

     Number of k-points >= 100: set verbosity='high' to print the bands.

     highest occupied level (ev):     5.9271

!    total energy              =     -22.84011954 Ry
     Harris-Foulkes estimate   =     -22.84011954 Ry
     estimated scf accuracy    <          5.0E-11 Ry

     The total energy is the sum of the following terms:

     one-electron contribution =       5.00144112 Ry
     hartree contribution      =       1.11928916 Ry
     xc contribution           =     -12.28295761 Ry
     ewald contribution        =     -16.67789222 Ry

     convergence has been achieved in   9 iterations

     Forces acting on atoms (cartesian axes, Ry/au):

     atom    1 type  1   force =    -0.00000000   -0.00000000   -0.00000000
     atom    2 type  1   force =     0.00000000    0.00000000    0.00000000

     Total force =     0.000000     Total SCF correction =     0.000000


     Computing stress (Cartesian axis) and pressure

          total   stress  (Ry/bohr**3)                   (kbar)     P=   -0.06
  -0.00000039  -0.00000000  -0.00000000         -0.06     -0.00     -0.00
  -0.00000000  -0.00000039   0.00000000         -0.00     -0.06      0.00
  -0.00000000   0.00000000  -0.00000039         -0.00      0.00     -0.06


     Writing output data file si.save/
 
     init_run     :      1.15s CPU      1.24s WALL (       1 calls)
     electrons    :     15.95s CPU     16.81s WALL (       1 calls)
     forces       :      0.27s CPU      0.30s WALL (       1 calls)
     stress       :      0.91s CPU      1.01s WALL (       1 calls)

     Called by init_run:
     wfcinit      :      0.63s CPU      0.65s WALL (       1 calls)
     potinit      :      0.07s CPU      0.08s WALL (       1 calls)
     hinit0       :      0.29s CPU      0.34s WALL (       1 calls)

     Called by electrons:
     c_bands      :     12.39s CPU     12.67s WALL (      10 calls)
     sum_band     :      2.50s CPU      2.87s WALL (      10 calls)
     v_of_rho     :      0.58s CPU      0.61s WALL (      10 calls)
     newd         :      0.43s CPU      0.62s WALL (      10 calls)
     mix_rho      :      0.08s CPU      0.08s WALL (      10 calls)

     Called by c_bands:
     init_us_2    :      0.78s CPU      0.80s WALL (    2530 calls)
     cegterg      :      9.54s CPU      9.76s WALL (    1100 calls)

     Called by sum_band:
     sum_band:bec :      0.02s CPU      0.02s WALL (    1100 calls)
     addusdens    :      0.37s CPU      0.66s WALL (      10 calls)

     Called by *egterg:
     h_psi        :      8.43s CPU      8.63s WALL (    3620 calls)
     s_psi        :      0.32s CPU      0.33s WALL (    3620 calls)
     g_psi        :      0.06s CPU      0.06s WALL (    2410 calls)
     cdiaghg      :      0.42s CPU      0.44s WALL (    3400 calls)

     Called by h_psi:
     h_psi:pot    :      8.38s CPU      8.57s WALL (    3620 calls)
     h_psi:calbec :      0.91s CPU      0.93s WALL (    3620 calls)
     vloc_psi     :      7.07s CPU      7.24s WALL (    3620 calls)
     add_vuspsi   :      0.37s CPU      0.38s WALL (    3620 calls)

     General routines
     calbec       :      1.27s CPU      1.31s WALL (    5270 calls)
     fft          :      0.46s CPU      0.50s WALL (     154 calls)
     ffts         :      0.01s CPU      0.01s WALL (      20 calls)
     fftw         :      7.31s CPU      7.50s WALL (   31372 calls)
     interpolate  :      0.05s CPU      0.05s WALL (      10 calls)
 
     Parallel routines
     fft_scatt_xy :      0.94s CPU      0.97s WALL (   31546 calls)
     fft_scatt_yz :      3.69s CPU      3.80s WALL (   31546 calls)
 
     PWSCF        :     18.89s CPU     20.05s WALL

 
   This run was terminated on:  22: 5: 3  30Jul2019            

=------------------------------------------------------------------------------=
   JOB DONE.
=------------------------------------------------------------------------------=
