
     Program PWSCF v.6.4.1 starts on 30Jul2019 at 22: 9: 1 

     This program is part of the open-source Quantum ESPRESSO suite
     for quantum simulation of materials; please cite
         "P. Giannozzi et al., J. Phys.:Condens. Matter 21 395502 (2009);
         "P. Giannozzi et al., J. Phys.:Condens. Matter 29 465901 (2017);
          URL http://www.quantum-espresso.org", 
     in publications or presentations arising from this work. More details at
     http://www.quantum-espresso.org/quote

     Parallel version (MPI), running on     2 processors

     MPI processes distributed on     1 nodes
     R & G space division:  proc/nbgrp/npool/nimage =       2
     Reading input from si.3_scf_0.99a.in

     Current dimensions of program PWSCF are:
     Max number of different atomic species (ntypx) = 10
     Max number of k-points (npk) =  40000
     Max angular momentum in pseudopotentials (lmaxx) =  3

     Subspace diagonalization in iterative solution of the eigenvalue problem:
     a serial algorithm will be used

 
     Parallelization info
     --------------------
     sticks:   dense  smooth     PW     G-vecs:    dense   smooth      PW
     Min         579     291     99                12945     4628     879
     Max         580     292    100                12948     4629     880
     Sum        1159     583    199                25893     9257    1759
 


     bravais-lattice index     =            2
     lattice parameter (alat)  =      10.2323  a.u.
     unit-cell volume          =     267.8330 (a.u.)^3
     number of atoms/cell      =            2
     number of atomic types    =            1
     number of electrons       =         8.00
     number of Kohn-Sham states=            4
     kinetic-energy cutoff     =      40.0000  Ry
     charge density cutoff     =     320.0000  Ry
     convergence threshold     =      1.0E-10
     mixing beta               =       0.7000
     number of iterations used =            8  plain     mixing
     Exchange-correlation      = PBE ( 1  4  3  4 0 0)

     celldm(1)=  10.232334  celldm(2)=   0.000000  celldm(3)=   0.000000
     celldm(4)=   0.000000  celldm(5)=   0.000000  celldm(6)=   0.000000

     crystal axes: (cart. coord. in units of alat)
               a(1) = (  -0.500000   0.000000   0.500000 )  
               a(2) = (   0.000000   0.500000   0.500000 )  
               a(3) = (  -0.500000   0.500000   0.000000 )  

     reciprocal axes: (cart. coord. in units 2 pi/alat)
               b(1) = ( -1.000000 -1.000000  1.000000 )  
               b(2) = (  1.000000  1.000000  1.000000 )  
               b(3) = ( -1.000000  1.000000 -1.000000 )  


     PseudoPot. # 1 for Si read from file:
     /home/anonymous/quantumEspresso_2019/SSSP_precision_pseudos/Si.pbe-n-rrkjus_psl.1.0.0.UPF
     MD5 check sum: 0b0bb1205258b0d07b9f9672cf965d36
     Pseudo is Ultrasoft + core correction, Zval =  4.0
     Generated using "atomic" code by A. Dal Corso v.5.1
     Using radial grid of 1141 points,  6 beta functions with: 
                l(1) =   0
                l(2) =   0
                l(3) =   1
                l(4) =   1
                l(5) =   2
                l(6) =   2
     Q(r) pseudized with 0 coefficients 


     atomic species   valence    mass     pseudopotential
        Si             4.00    28.08550     Si( 1.00)

     48 Sym. Ops., with inversion, found (24 have fractional translation)



   Cartesian axes

     site n.     atom                  positions (alat units)
         1           Si  tau(   1) = (   0.0000000   0.0000000   0.0000000  )
         2           Si  tau(   2) = (   0.2500000   0.2500000   0.2500000  )

     number of k points=   110

     Number of k-points >= 100: set verbosity='high' to print them.

     Dense  grid:    25893 G-vectors     FFT dimensions: (  48,  48,  48)

     Smooth grid:     9257 G-vectors     FFT dimensions: (  32,  32,  32)

     Estimated max dynamical RAM per process >      55.36 MB

     Estimated total dynamical RAM >     110.71 MB

     Initial potential from superposition of free atoms

     starting charge    7.99888, renormalised to    8.00000
     Starting wfcs are    8 randomized atomic wfcs

     total cpu time spent up to now is        1.8 secs

     Self-consistent Calculation

     iteration #  1     ecut=    40.00 Ry     beta= 0.70
     Davidson diagonalization with overlap
     ethr =  1.00E-02,  avg # of iterations =  2.0

     Threshold (ethr) on eigenvalues was too large:
     Diagonalizing with lowered threshold

     Davidson diagonalization with overlap
     ethr =  7.04E-04,  avg # of iterations =  1.3

     total cpu time spent up to now is        4.7 secs

     total energy              =     -22.83660087 Ry
     Harris-Foulkes estimate   =     -22.85037288 Ry
     estimated scf accuracy    <       0.05584791 Ry

     iteration #  2     ecut=    40.00 Ry     beta= 0.70
     Davidson diagonalization with overlap
     ethr =  6.98E-04,  avg # of iterations =  1.0

     total cpu time spent up to now is        6.1 secs

     total energy              =     -22.83861395 Ry
     Harris-Foulkes estimate   =     -22.83885627 Ry
     estimated scf accuracy    <       0.00265372 Ry

     iteration #  3     ecut=    40.00 Ry     beta= 0.70
     Davidson diagonalization with overlap
     ethr =  3.32E-05,  avg # of iterations =  2.9

     total cpu time spent up to now is        8.0 secs

     total energy              =     -22.83931235 Ry
     Harris-Foulkes estimate   =     -22.83938146 Ry
     estimated scf accuracy    <       0.00014905 Ry

     iteration #  4     ecut=    40.00 Ry     beta= 0.70
     Davidson diagonalization with overlap
     ethr =  1.86E-06,  avg # of iterations =  2.1

     total cpu time spent up to now is        9.7 secs

     total energy              =     -22.83933076 Ry
     Harris-Foulkes estimate   =     -22.83936831 Ry
     estimated scf accuracy    <       0.00007939 Ry

     iteration #  5     ecut=    40.00 Ry     beta= 0.70
     Davidson diagonalization with overlap
     ethr =  9.92E-07,  avg # of iterations =  2.0

     total cpu time spent up to now is       11.3 secs

     total energy              =     -22.83933937 Ry
     Harris-Foulkes estimate   =     -22.83933934 Ry
     estimated scf accuracy    <       0.00000005 Ry

     iteration #  6     ecut=    40.00 Ry     beta= 0.70
     Davidson diagonalization with overlap
     ethr =  6.21E-10,  avg # of iterations =  4.4

     total cpu time spent up to now is       13.8 secs

     total energy              =     -22.83933978 Ry
     Harris-Foulkes estimate   =     -22.83933980 Ry
     estimated scf accuracy    <       0.00000008 Ry

     iteration #  7     ecut=    40.00 Ry     beta= 0.70
     Davidson diagonalization with overlap
     ethr =  6.21E-10,  avg # of iterations =  1.0

     total cpu time spent up to now is       15.2 secs

     total energy              =     -22.83933978 Ry
     Harris-Foulkes estimate   =     -22.83933978 Ry
     estimated scf accuracy    <       0.00000002 Ry

     iteration #  8     ecut=    40.00 Ry     beta= 0.70
     Davidson diagonalization with overlap
     ethr =  1.91E-10,  avg # of iterations =  2.0

     total cpu time spent up to now is       17.0 secs

     total energy              =     -22.83933978 Ry
     Harris-Foulkes estimate   =     -22.83933978 Ry
     estimated scf accuracy    <          3.7E-10 Ry

     iteration #  9     ecut=    40.00 Ry     beta= 0.70
     Davidson diagonalization with overlap
     ethr =  4.61E-12,  avg # of iterations =  2.7

     total cpu time spent up to now is       18.8 secs

     End of self-consistent calculation

     Number of k-points >= 100: set verbosity='high' to print the bands.

     highest occupied level (ev):     6.2389

!    total energy              =     -22.83933978 Ry
     Harris-Foulkes estimate   =     -22.83933978 Ry
     estimated scf accuracy    <          5.0E-11 Ry

     The total energy is the sum of the following terms:

     one-electron contribution =       5.23403844 Ry
     hartree contribution      =       1.09261808 Ry
     xc contribution           =     -12.31964052 Ry
     ewald contribution        =     -16.84635577 Ry

     convergence has been achieved in   9 iterations

     Forces acting on atoms (cartesian axes, Ry/au):

     atom    1 type  1   force =     0.00000000    0.00000000    0.00000000
     atom    2 type  1   force =     0.00000000    0.00000000    0.00000000

     Total force =     0.000000     Total SCF correction =     0.000000


     Computing stress (Cartesian axis) and pressure

          total   stress  (Ry/bohr**3)                   (kbar)     P=   28.51
   0.00019378  -0.00000000   0.00000000         28.51     -0.00      0.00
  -0.00000000   0.00019378   0.00000000         -0.00     28.51      0.00
   0.00000000   0.00000000   0.00019378          0.00      0.00     28.51


     Writing output data file si.save/
 
     init_run     :      1.13s CPU      1.18s WALL (       1 calls)
     electrons    :     16.22s CPU     17.07s WALL (       1 calls)
     forces       :      0.28s CPU      0.31s WALL (       1 calls)
     stress       :      0.93s CPU      1.01s WALL (       1 calls)

     Called by init_run:
     wfcinit      :      0.62s CPU      0.64s WALL (       1 calls)
     potinit      :      0.07s CPU      0.07s WALL (       1 calls)
     hinit0       :      0.30s CPU      0.30s WALL (       1 calls)

     Called by electrons:
     c_bands      :     12.72s CPU     12.97s WALL (      10 calls)
     sum_band     :      2.48s CPU      2.84s WALL (      10 calls)
     v_of_rho     :      0.58s CPU      0.61s WALL (      10 calls)
     newd         :      0.40s CPU      0.63s WALL (      10 calls)
     mix_rho      :      0.07s CPU      0.07s WALL (      10 calls)

     Called by c_bands:
     init_us_2    :      0.76s CPU      0.79s WALL (    2530 calls)
     cegterg      :      9.88s CPU     10.07s WALL (    1100 calls)

     Called by sum_band:
     sum_band:bec :      0.02s CPU      0.02s WALL (    1100 calls)
     addusdens    :      0.38s CPU      0.65s WALL (      10 calls)

     Called by *egterg:
     h_psi        :      8.77s CPU      8.94s WALL (    3553 calls)
     s_psi        :      0.33s CPU      0.34s WALL (    3553 calls)
     g_psi        :      0.06s CPU      0.06s WALL (    2343 calls)
     cdiaghg      :      0.42s CPU      0.44s WALL (    3333 calls)

     Called by h_psi:
     h_psi:pot    :      8.72s CPU      8.88s WALL (    3553 calls)
     h_psi:calbec :      0.92s CPU      0.94s WALL (    3553 calls)
     vloc_psi     :      7.40s CPU      7.54s WALL (    3553 calls)
     add_vuspsi   :      0.37s CPU      0.38s WALL (    3553 calls)

     General routines
     calbec       :      1.29s CPU      1.33s WALL (    5203 calls)
     fft          :      0.47s CPU      0.48s WALL (     154 calls)
     ffts         :      0.01s CPU      0.01s WALL (      20 calls)
     fftw         :      7.59s CPU      7.77s WALL (   31076 calls)
     interpolate  :      0.04s CPU      0.04s WALL (      10 calls)
 
     Parallel routines
     fft_scatt_xy :      0.98s CPU      1.00s WALL (   31250 calls)
     fft_scatt_yz :      3.87s CPU      3.96s WALL (   31250 calls)
 
     PWSCF        :     19.17s CPU     20.23s WALL

 
   This run was terminated on:  22: 9:21  30Jul2019            

=------------------------------------------------------------------------------=
   JOB DONE.
=------------------------------------------------------------------------------=
